REMARK  LIGAND DHT (Dihydrotestosterone)
REMARK  FORMULA: C19H30O2  MW: 290.45  ROTATABLE_BONDS: 1
ROOT
ATOM      1  C   UNK A   1      -3.824  -0.511   1.394  1.00  0.00    -0.057 C 
ATOM      2  C   UNK A   1      -2.753  -0.577   0.284  1.00  0.00    -0.003 C 
ATOM      3  C   UNK A   1      -1.790  -1.737   0.655  1.00  0.00    -0.045 C 
ATOM      4  C   UNK A   1      -0.442  -1.756  -0.066  1.00  0.00    -0.049 C 
ATOM      5  C   UNK A   1       0.228  -0.374  -0.200  1.00  0.00    -0.033 C 
ATOM      6  C   UNK A   1      -0.527   0.696   0.616  1.00  0.00    -0.035 C 
ATOM      7  C   UNK A   1      -2.009   0.794   0.177  1.00  0.00    -0.030 C 
ATOM      8  C   UNK A   1      -2.211   1.275  -1.272  1.00  0.00    -0.047 C 
ATOM      9  C   UNK A   1      -2.586   0.044  -2.084  1.00  0.00    -0.026 C 
ATOM     10  C   UNK A   1      -3.394  -0.804  -1.114  1.00  0.00    +0.060 C 
ATOM     11  O   UNK A   1      -4.756  -0.385  -1.171  1.00  0.00    -0.393 OA
ATOM     12  C   UNK A   1       0.189   2.060   0.670  1.00  0.00    -0.050 C 
ATOM     13  C   UNK A   1       1.377   2.239  -0.269  1.00  0.00    -0.049 C 
ATOM     14  C   UNK A   1       2.283   1.013  -0.489  1.00  0.00    -0.029 C 
ATOM     15  C   UNK A   1       1.760  -0.334   0.088  1.00  0.00    -0.026 C 
ATOM     16  C   UNK A   1       2.522  -1.470  -0.654  1.00  0.00    -0.040 C 
ATOM     17  C   UNK A   1       3.973  -1.139  -1.035  1.00  0.00    +0.007 C 
ATOM     18  C   UNK A   1       4.574   0.014  -0.257  1.00  0.00    +0.133 C 
ATOM     19  O   UNK A   1       5.730  -0.035   0.163  1.00  0.00    -0.300 OA
ATOM     20  C   UNK A   1       3.739   1.269  -0.091  1.00  0.00    +0.009 C 
ATOM     21  C   UNK A   1       2.039  -0.492   1.606  1.00  0.00    -0.059 C 
ATOM     22  H   UNK A   1      -3.362  -0.365   2.377  1.00  0.00    +0.024 H 
ATOM     23  H   UNK A   1      -4.408  -1.437   1.433  1.00  0.00    +0.024 H 
ATOM     24  H   UNK A   1      -4.519   0.322   1.245  1.00  0.00    +0.024 H 
ATOM     25  H   UNK A   1      -2.291  -2.703   0.502  1.00  0.00    +0.027 H 
ATOM     26  H   UNK A   1      -1.577  -1.696   1.733  1.00  0.00    +0.027 H 
ATOM     27  H   UNK A   1       0.207  -2.466   0.458  1.00  0.00    +0.027 H 
ATOM     28  H   UNK A   1      -0.581  -2.179  -1.070  1.00  0.00    +0.027 H 
ATOM     29  H   UNK A   1       0.132  -0.109  -1.261  1.00  0.00    +0.031 H 
ATOM     30  H   UNK A   1      -0.560   0.361   1.663  1.00  0.00    +0.031 H 
ATOM     31  H   UNK A   1      -2.488   1.532   0.835  1.00  0.00    +0.031 H 
ATOM     32  H   UNK A   1      -3.042   1.991  -1.297  1.00  0.00    +0.027 H 
ATOM     33  H   UNK A   1      -1.342   1.787  -1.694  1.00  0.00    +0.027 H 
ATOM     34  H   UNK A   1      -3.155   0.325  -2.976  1.00  0.00    +0.029 H 
ATOM     35  H   UNK A   1      -1.691  -0.490  -2.413  1.00  0.00    +0.029 H 
ATOM     36  H   UNK A   1      -3.380  -1.857  -1.413  1.00  0.00    +0.061 H 
ATOM     37  H   UNK A   1      -4.796   0.568  -0.989  1.00  0.00    +0.210 H 
ATOM     38  H   UNK A   1      -0.521   2.881   0.510  1.00  0.00    +0.027 H 
ATOM     39  H   UNK A   1       0.553   2.212   1.695  1.00  0.00    +0.027 H 
ATOM     40  H   UNK A   1       0.974   2.530  -1.249  1.00  0.00    +0.027 H 
ATOM     41  H   UNK A   1       1.966   3.104   0.060  1.00  0.00    +0.027 H 
ATOM     42  H   UNK A   1       2.300   0.893  -1.586  1.00  0.00    +0.031 H 
ATOM     43  H   UNK A   1       2.516  -2.385  -0.048  1.00  0.00    +0.028 H 
ATOM     44  H   UNK A   1       1.996  -1.733  -1.581  1.00  0.00    +0.028 H 
ATOM     45  H   UNK A   1       4.599  -2.027  -0.898  1.00  0.00    +0.035 H 
ATOM     46  H   UNK A   1       4.026  -0.870  -2.097  1.00  0.00    +0.035 H 
ATOM     47  H   UNK A   1       3.807   1.592   0.954  1.00  0.00    +0.035 H 
ATOM     48  H   UNK A   1       4.171   2.052  -0.725  1.00  0.00    +0.035 H 
ATOM     49  H   UNK A   1       1.773   0.399   2.179  1.00  0.00    +0.024 H 
ATOM     50  H   UNK A   1       1.478  -1.334   2.026  1.00  0.00    +0.024 H 
ATOM     51  H   UNK A   1       3.095  -0.692   1.816  1.00  0.00    +0.024 H 
ENDROOT
TORSDOF 1
