REMARK  LIGAND Enzalutamide (Enzalutamide (MDV3100))
REMARK  FORMULA: C21H16F4N4O2S  MW: 464.44  ROTATABLE_BONDS: 3
ROOT
ATOM      1  C   UNK A   1      -2.108  -1.162  -2.019  1.00  0.00    -0.032 C 
ATOM      2  C   UNK A   1      -1.445   0.040  -1.342  1.00  0.00    +0.121 C 
ATOM      3  C   UNK A   1       0.075  -0.151  -1.372  1.00  0.00    +0.259 C 
ATOM      4  O   UNK A   1       0.690  -0.437  -2.395  1.00  0.00    -0.271 OA
ATOM      5  N   UNK A   1       0.598   0.157  -0.132  1.00  0.00    -0.255 NA
ATOM      6  C   UNK A   1      -0.433   0.307   0.799  1.00  0.00    +0.188 C 
ATOM      7  S   UNK A   1      -0.295   0.610   2.446  1.00  0.00    -0.039 S 
ATOM      8  N   UNK A   1      -1.666   0.137   0.102  1.00  0.00    -0.304 NA
ATOM      9  C   UNK A   1      -2.934  -0.152   0.685  1.00  0.00    +0.045 A 
ATOM     10  C   UNK A   1      -4.104   0.443   0.200  1.00  0.00    -0.025 A 
ATOM     11  C   UNK A   1      -5.371   0.146   0.748  1.00  0.00    +0.075 A 
ATOM     12  C   UNK A   1      -5.460  -0.778   1.801  1.00  0.00    +0.064 A 
ATOM     13  C   UNK A   1      -4.298  -1.388   2.282  1.00  0.00    -0.042 A 
ATOM     14  C   UNK A   1      -3.052  -1.080   1.726  1.00  0.00    -0.037 A 
ATOM     15  C   UNK A   1      -6.720  -1.123   2.400  1.00  0.00    +0.100 C 
ATOM     16  N   UNK A   1      -7.735  -1.408   2.881  1.00  0.00    -0.192 NA
ATOM     17  C   UNK A   1      -6.606   0.824   0.206  1.00  0.00    +0.417 C 
ATOM     18  F   UNK A   1      -7.509  -0.062  -0.290  1.00  0.00    -0.166 F 
ATOM     19  F   UNK A   1      -7.255   1.558   1.147  1.00  0.00    -0.166 F 
ATOM     20  F   UNK A   1      -6.338   1.686  -0.815  1.00  0.00    -0.166 F 
ATOM     21  C   UNK A   1       2.007   0.234   0.096  1.00  0.00    +0.054 A 
ATOM     22  C   UNK A   1       2.887  -0.640  -0.560  1.00  0.00    -0.001 A 
ATOM     23  C   UNK A   1       4.268  -0.565  -0.357  1.00  0.00    +0.138 A 
ATOM     24  C   UNK A   1       4.822   0.389   0.492  1.00  0.00    +0.075 A 
ATOM     25  C   UNK A   1       3.957   1.281   1.136  1.00  0.00    -0.044 A 
ATOM     26  C   UNK A   1       2.570   1.205   0.936  1.00  0.00    -0.037 A 
ATOM     27  C   UNK A   1       6.286   0.516   0.741  1.00  0.00    +0.253 C 
ATOM     28  O   UNK A   1       6.704   1.419   1.459  1.00  0.00    -0.269 OA
ATOM     29  N   UNK A   1       7.117  -0.402   0.137  1.00  0.00    -0.355 NA
ATOM     30  C   UNK A   1       8.550  -0.306   0.251  1.00  0.00    +0.006 C 
ATOM     31  F   UNK A   1       5.043  -1.445  -1.010  1.00  0.00    -0.206 F 
ATOM     32  C   UNK A   1      -1.731   1.352  -2.084  1.00  0.00    -0.032 C 
ATOM     33  H   UNK A   1      -1.850  -2.096  -1.507  1.00  0.00    +0.026 H 
ATOM     34  H   UNK A   1      -3.199  -1.076  -2.029  1.00  0.00    +0.026 H 
ATOM     35  H   UNK A   1      -1.780  -1.261  -3.061  1.00  0.00    +0.026 H 
ATOM     36  H   UNK A   1      -4.051   1.187  -0.589  1.00  0.00    +0.065 H 
ATOM     37  H   UNK A   1      -4.349  -2.115   3.092  1.00  0.00    +0.064 H 
ATOM     38  H   UNK A   1      -2.182  -1.612   2.106  1.00  0.00    +0.065 H 
ATOM     39  H   UNK A   1       2.525  -1.420  -1.225  1.00  0.00    +0.068 H 
ATOM     40  H   UNK A   1       4.356   2.052   1.794  1.00  0.00    +0.063 H 
ATOM     41  H   UNK A   1       1.959   1.963   1.420  1.00  0.00    +0.065 H 
ATOM     42  H   UNK A   1       6.731  -1.064  -0.527  1.00  0.00    +0.163 H 
ATOM     43  H   UNK A   1       8.834  -0.027   1.269  1.00  0.00    +0.045 H 
ATOM     44  H   UNK A   1       8.985  -1.275  -0.005  1.00  0.00    +0.045 H 
ATOM     45  H   UNK A   1       8.905   0.455  -0.448  1.00  0.00    +0.045 H 
ATOM     46  H   UNK A   1      -2.800   1.521  -2.229  1.00  0.00    +0.026 H 
ATOM     47  H   UNK A   1      -1.276   1.348  -3.082  1.00  0.00    +0.026 H 
ATOM     48  H   UNK A   1      -1.324   2.216  -1.545  1.00  0.00    +0.026 H 
ENDROOT
TORSDOF 3
