REMARK  LIGAND Testosterone (Testosterone)
REMARK  FORMULA: C19H28O2  MW: 288.43  ROTATABLE_BONDS: 1
ROOT
ATOM      1  C   UNK A   1       2.688   0.289  -1.488  1.00  0.00    -0.057 C 
ATOM      2  C   UNK A   1       2.494  -0.108  -0.006  1.00  0.00    -0.003 C 
ATOM      3  C   UNK A   1       1.979  -1.553   0.063  1.00  0.00    -0.045 C 
ATOM      4  C   UNK A   1       0.518  -1.661  -0.415  1.00  0.00    -0.049 C 
ATOM      5  C   UNK A   1      -0.449  -0.731   0.367  1.00  0.00    -0.029 C 
ATOM      6  C   UNK A   1       0.057   0.749   0.393  1.00  0.00    -0.034 C 
ATOM      7  C   UNK A   1       1.531   0.774   0.820  1.00  0.00    -0.030 C 
ATOM      8  C   UNK A   1       2.259   2.107   0.941  1.00  0.00    -0.047 C 
ATOM      9  C   UNK A   1       3.747   1.711   1.031  1.00  0.00    -0.026 C 
ATOM     10  C   UNK A   1       3.823   0.199   0.726  1.00  0.00    +0.060 C 
ATOM     11  O   UNK A   1       3.926  -0.496   1.965  1.00  0.00    -0.393 OA
ATOM     12  C   UNK A   1      -0.276   1.569  -0.870  1.00  0.00    -0.046 C 
ATOM     13  C   UNK A   1      -1.345   0.940  -1.759  1.00  0.00    -0.031 C 
ATOM     14  C   UNK A   1      -2.417   0.342  -0.898  1.00  0.00    -0.060 C 
ATOM     15  C   UNK A   1      -3.648   0.880  -0.858  1.00  0.00    -0.019 C 
ATOM     16  C   UNK A   1      -4.693   0.366   0.059  1.00  0.00    +0.155 C 
ATOM     17  O   UNK A   1      -5.836   0.810  -0.025  1.00  0.00    -0.295 OA
ATOM     18  C   UNK A   1      -4.325  -0.712   1.049  1.00  0.00    +0.011 C 
ATOM     19  C   UNK A   1      -2.819  -0.783   1.285  1.00  0.00    -0.037 C 
ATOM     20  C   UNK A   1      -1.982  -0.833  -0.027  1.00  0.00    -0.008 C 
ATOM     21  C   UNK A   1      -2.308  -2.143  -0.779  1.00  0.00    -0.056 C 
ATOM     22  H   UNK A   1       3.491  -0.309  -1.936  1.00  0.00    +0.024 H 
ATOM     23  H   UNK A   1       1.799   0.113  -2.098  1.00  0.00    +0.024 H 
ATOM     24  H   UNK A   1       2.968   1.339  -1.612  1.00  0.00    +0.024 H 
ATOM     25  H   UNK A   1       2.613  -2.216  -0.538  1.00  0.00    +0.027 H 
ATOM     26  H   UNK A   1       2.024  -1.932   1.091  1.00  0.00    +0.027 H 
ATOM     27  H   UNK A   1       0.216  -2.706  -0.275  1.00  0.00    +0.027 H 
ATOM     28  H   UNK A   1       0.459  -1.465  -1.489  1.00  0.00    +0.027 H 
ATOM     29  H   UNK A   1      -0.372  -1.092   1.405  1.00  0.00    +0.031 H 
ATOM     30  H   UNK A   1      -0.496   1.242   1.208  1.00  0.00    +0.031 H 
ATOM     31  H   UNK A   1       1.517   0.363   1.845  1.00  0.00    +0.031 H 
ATOM     32  H   UNK A   1       1.940   2.662   1.830  1.00  0.00    +0.027 H 
ATOM     33  H   UNK A   1       2.093   2.754   0.074  1.00  0.00    +0.027 H 
ATOM     34  H   UNK A   1       4.152   1.949   2.020  1.00  0.00    +0.029 H 
ATOM     35  H   UNK A   1       4.314   2.283   0.287  1.00  0.00    +0.029 H 
ATOM     36  H   UNK A   1       4.714  -0.041   0.136  1.00  0.00    +0.061 H 
ATOM     37  H   UNK A   1       4.125  -1.426   1.761  1.00  0.00    +0.210 H 
ATOM     38  H   UNK A   1       0.600   1.791  -1.480  1.00  0.00    +0.027 H 
ATOM     39  H   UNK A   1      -0.633   2.556  -0.540  1.00  0.00    +0.027 H 
ATOM     40  H   UNK A   1      -1.745   1.702  -2.439  1.00  0.00    +0.031 H 
ATOM     41  H   UNK A   1      -0.909   0.165  -2.400  1.00  0.00    +0.031 H 
ATOM     42  H   UNK A   1      -3.942   1.725  -1.472  1.00  0.00    +0.066 H 
ATOM     43  H   UNK A   1      -4.715  -1.666   0.682  1.00  0.00    +0.035 H 
ATOM     44  H   UNK A   1      -4.823  -0.488   2.000  1.00  0.00    +0.035 H 
ATOM     45  H   UNK A   1      -2.523   0.095   1.875  1.00  0.00    +0.028 H 
ATOM     46  H   UNK A   1      -2.600  -1.660   1.908  1.00  0.00    +0.028 H 
ATOM     47  H   UNK A   1      -1.744  -2.228  -1.715  1.00  0.00    +0.024 H 
ATOM     48  H   UNK A   1      -3.365  -2.209  -1.061  1.00  0.00    +0.024 H 
ATOM     49  H   UNK A   1      -2.083  -3.019  -0.161  1.00  0.00    +0.024 H 
ENDROOT
TORSDOF 1
