MODEL 1
REMARK VINA RESULT:     -11.23        0.000        0.000
ATOM      1  C   UNK A   1      24.662  29.919   7.117  1.00  0.00    -0.057 C
ATOM      2  C   UNK A   1      25.135  28.956   6.007  1.00  0.00    -0.003 C
ATOM      3  C   UNK A   1      24.604  27.545   6.378  1.00  0.00    -0.045 C
ATOM      4  C   UNK A   1      25.255  26.364   5.657  1.00  0.00    -0.049 C
ATOM      5  C   UNK A   1      26.787  26.466   5.523  1.00  0.00    -0.033 C
ATOM      6  C   UNK A   1      27.343  27.652   6.339  1.00  0.00    -0.035 C
ATOM      7  C   UNK A   1      26.695  28.988   5.900  1.00  0.00    -0.030 C
ATOM      8  C   UNK A   1      27.012  29.402   4.451  1.00  0.00    -0.047 C
ATOM      9  C   UNK A   1      25.757  29.118   3.639  1.00  0.00    -0.026 C
ATOM     10  C   UNK A   1      24.620  29.400   4.609  1.00  0.00    +0.060 C
ATOM     11  O   UNK A   1      24.310  30.791   4.552  1.00  0.00    -0.393 OA
ATOM     12  C   UNK A   1      28.883  27.705   6.393  1.00  0.00    -0.050 C
ATOM     13  C   UNK A   1      29.627  26.762   5.454  1.00  0.00    -0.049 C
ATOM     14  C   UNK A   1      29.010  25.368   5.234  1.00  0.00    -0.029 C
ATOM     15  C   UNK A   1      27.581  25.155   5.811  1.00  0.00    -0.026 C
ATOM     16  C   UNK A   1      26.971  23.930   5.069  1.00  0.00    -0.040 C
ATOM     17  C   UNK A   1      27.977  22.834   4.688  1.00  0.00    +0.007 C
ATOM     18  C   UNK A   1      29.276  22.882   5.466  1.00  0.00    +0.133 C
ATOM     19  O   UNK A   1      29.806  21.854   5.886  1.00  0.00    -0.300 OA
ATOM     20  C   UNK A   1      29.953  24.229   5.632  1.00  0.00    +0.009 C
ATOM     21  C   UNK A   1      27.582  24.834   7.329  1.00  0.00    -0.059 C
ATOM     22  H   UNK A   1      25.018  29.590   8.100  1.00  0.00    +0.024 H
ATOM     23  H   UNK A   1      23.568  29.968   7.156  1.00  0.00    +0.024 H
ATOM     24  H   UNK A   1      25.042  30.935   6.968  1.00  0.00    +0.024 H
ATOM     25  H   UNK A   1      23.517  27.502   6.225  1.00  0.00    +0.027 H
ATOM     26  H   UNK A   1      24.745  27.380   7.456  1.00  0.00    +0.027 H
ATOM     27  H   UNK A   1      24.959  25.449   6.181  1.00  0.00    +0.027 H
ATOM     28  H   UNK A   1      24.819  26.275   4.653  1.00  0.00    +0.027 H
ATOM     29  H   UNK A   1      26.970  26.681   4.462  1.00  0.00    +0.031 H
ATOM     30  H   UNK A   1      27.036  27.515   7.386  1.00  0.00    +0.031 H
ATOM     31  H   UNK A   1      27.099  29.770   6.558  1.00  0.00    +0.031 H
ATOM     32  H   UNK A   1      27.223  30.478   4.426  1.00  0.00    +0.027 H
ATOM     33  H   UNK A   1      27.888  28.900   4.029  1.00  0.00    +0.027 H
ATOM     34  H   UNK A   1      25.720  29.751   2.747  1.00  0.00    +0.029 H
ATOM     35  H   UNK A   1      25.736  28.076   3.310  1.00  0.00    +0.029 H
ATOM     36  H   UNK A   1      23.712  28.867   4.310  1.00  0.00    +0.061 H
ATOM     37  H   UNK A   1      25.118  31.298   4.734  1.00  0.00    +0.210 H
ATOM     38  H   UNK A   1      29.244  28.729   6.233  1.00  0.00    +0.027 H
ATOM     39  H   UNK A   1      29.195  27.464   7.418  1.00  0.00    +0.027 H
ATOM     40  H   UNK A   1      29.680  27.256   4.474  1.00  0.00    +0.027 H
ATOM     41  H   UNK A   1      30.670  26.678   5.783  1.00  0.00    +0.027 H
ATOM     42  H   UNK A   1      28.914  25.293   4.137  1.00  0.00    +0.031 H
ATOM     43  H   UNK A   1      26.173  23.483   5.675  1.00  0.00    +0.028 H
ATOM     44  H   UNK A   1      26.482  24.257   4.142  1.00  0.00    +0.028 H
ATOM     45  H   UNK A   1      27.516  21.850   4.825  1.00  0.00    +0.035 H
ATOM     46  H   UNK A   1      28.237  22.921   3.626  1.00  0.00    +0.035 H
ATOM     47  H   UNK A   1      30.268  24.330   6.677  1.00  0.00    +0.035 H
ATOM     48  H   UNK A   1      30.847  24.242   4.998  1.00  0.00    +0.035 H
ATOM     49  H   UNK A   1      28.224  25.507   7.902  1.00  0.00    +0.024 H
ATOM     50  H   UNK A   1      26.572  24.905   7.749  1.00  0.00    +0.024 H
ATOM     51  H   UNK A   1      27.931  23.818   7.539  1.00  0.00    +0.024 H
ENDMDL

MODEL 2
REMARK VINA RESULT:     -10.66        2.330        2.960
ATOM      1  C   UNK A   1      29.432  26.409   6.049  1.00  0.00    -0.057 C
ATOM      2  C   UNK A   1      28.485  26.914   4.939  1.00  0.00    -0.003 C
ATOM      3  C   UNK A   1      28.089  28.368   5.310  1.00  0.00    -0.045 C
ATOM      4  C   UNK A   1      26.871  28.945   4.589  1.00  0.00    -0.049 C
ATOM      5  C   UNK A   1      25.688  27.965   4.455  1.00  0.00    -0.033 C
ATOM      6  C   UNK A   1      25.931  26.678   5.271  1.00  0.00    -0.035 C
ATOM      7  C   UNK A   1      27.239  25.974   4.832  1.00  0.00    -0.030 C
ATOM      8  C   UNK A   1      27.223  25.453   3.383  1.00  0.00    -0.047 C
ATOM      9  C   UNK A   1      28.075  26.418   2.571  1.00  0.00    -0.026 C
ATOM     10  C   UNK A   1      29.162  26.854   3.541  1.00  0.00    +0.060 C
ATOM     11  O   UNK A   1      30.228  25.908   3.484  1.00  0.00    -0.393 OA
ATOM     12  C   UNK A   1      24.714  25.734   5.325  1.00  0.00    -0.050 C
ATOM     13  C   UNK A   1      23.559  26.064   4.386  1.00  0.00    -0.049 C
ATOM     14  C   UNK A   1      23.243  27.555   4.166  1.00  0.00    -0.029 C
ATOM     15  C   UNK A   1      24.277  28.564   4.743  1.00  0.00    -0.026 C
ATOM     16  C   UNK A   1      24.055  29.914   4.001  1.00  0.00    -0.040 C
ATOM     17  C   UNK A   1      22.597  30.214   3.620  1.00  0.00    +0.007 C
ATOM     18  C   UNK A   1      21.572  29.414   4.398  1.00  0.00    +0.133 C
ATOM     19  O   UNK A   1      20.541  29.938   4.818  1.00  0.00    -0.300 OA
ATOM     20  C   UNK A   1      21.812  27.926   4.564  1.00  0.00    +0.009 C
ATOM     21  C   UNK A   1      24.089  28.823   6.261  1.00  0.00    -0.059 C
ATOM     22  H   UNK A   1      28.951  26.468   7.032  1.00  0.00    +0.024 H
ATOM     23  H   UNK A   1      30.347  27.010   6.088  1.00  0.00    +0.024 H
ATOM     24  H   UNK A   1      29.719  25.363   5.900  1.00  0.00    +0.024 H
ATOM     25  H   UNK A   1      28.946  29.040   5.157  1.00  0.00    +0.027 H
ATOM     26  H   UNK A   1      27.878  28.419   6.388  1.00  0.00    +0.027 H
ATOM     27  H   UNK A   1      26.574  29.860   5.113  1.00  0.00    +0.027 H
ATOM     28  H   UNK A   1      27.172  29.272   3.585  1.00  0.00    +0.027 H
ATOM     29  H   UNK A   1      25.665  27.684   3.394  1.00  0.00    +0.031 H
ATOM     30  H   UNK A   1      26.100  26.969   6.318  1.00  0.00    +0.031 H
ATOM     31  H   UNK A   1      27.369  25.104   5.490  1.00  0.00    +0.031 H
ATOM     32  H   UNK A   1      27.683  24.457   3.358  1.00  0.00    +0.027 H
ATOM     33  H   UNK A   1      26.220  25.347   2.961  1.00  0.00    +0.027 H
ATOM     34  H   UNK A   1      28.476  25.926   1.679  1.00  0.00    +0.029 H
ATOM     35  H   UNK A   1      27.482  27.275   2.242  1.00  0.00    +0.029 H
ATOM     36  H   UNK A   1      29.586  27.818   3.242  1.00  0.00    +0.061 H
ATOM     37  H   UNK A   1      29.869  25.024   3.666  1.00  0.00    +0.210 H
ATOM     38  H   UNK A   1      25.020  24.692   5.165  1.00  0.00    +0.027 H
ATOM     39  H   UNK A   1      24.320  25.747   6.350  1.00  0.00    +0.027 H
ATOM     40  H   UNK A   1      23.805  25.632   3.406  1.00  0.00    +0.027 H
ATOM     41  H   UNK A   1      22.664  25.521   4.715  1.00  0.00    +0.027 H
ATOM     42  H   UNK A   1      23.277  27.671   3.069  1.00  0.00    +0.031 H
ATOM     43  H   UNK A   1      24.440  30.744   4.607  1.00  0.00    +0.028 H
ATOM     44  H   UNK A   1      24.643  29.935   3.074  1.00  0.00    +0.028 H
ATOM     45  H   UNK A   1      22.396  31.282   3.757  1.00  0.00    +0.035 H
ATOM     46  H   UNK A   1      22.437  29.991   2.558  1.00  0.00    +0.035 H
ATOM     47  H   UNK A   1      21.616  27.660   5.609  1.00  0.00    +0.035 H
ATOM     48  H   UNK A   1      21.094  27.393   3.930  1.00  0.00    +0.035 H
ATOM     49  H   UNK A   1      23.961  27.902   6.834  1.00  0.00    +0.024 H
ATOM     50  H   UNK A   1      24.948  29.357   6.681  1.00  0.00    +0.024 H
ATOM     51  H   UNK A   1      23.211  29.443   6.471  1.00  0.00    +0.024 H
ENDMDL

MODEL 3
REMARK VINA RESULT:     -10.25        3.560        4.490
ATOM      1  C   UNK A   1      29.453  26.951   5.669  1.00  0.00    -0.057 C
ATOM      2  C   UNK A   1      28.441  27.306   4.559  1.00  0.00    -0.003 C
ATOM      3  C   UNK A   1      27.830  28.684   4.930  1.00  0.00    -0.045 C
ATOM      4  C   UNK A   1      26.539  29.070   4.209  1.00  0.00    -0.049 C
ATOM      5  C   UNK A   1      25.517  27.923   4.075  1.00  0.00    -0.033 C
ATOM      6  C   UNK A   1      25.952  26.688   4.891  1.00  0.00    -0.035 C
ATOM      7  C   UNK A   1      27.351  26.190   4.452  1.00  0.00    -0.030 C
ATOM      8  C   UNK A   1      27.415  25.672   3.003  1.00  0.00    -0.047 C
ATOM      9  C   UNK A   1      28.111  26.754   2.191  1.00  0.00    -0.026 C
ATOM     10  C   UNK A   1      29.119  27.350   3.161  1.00  0.00    +0.060 C
ATOM     11  O   UNK A   1      30.316  26.575   3.104  1.00  0.00    -0.393 OA
ATOM     12  C   UNK A   1      24.892  25.571   4.945  1.00  0.00    -0.050 C
ATOM     13  C   UNK A   1      23.700  25.722   4.006  1.00  0.00    -0.049 C
ATOM     14  C   UNK A   1      23.162  27.149   3.786  1.00  0.00    -0.029 C
ATOM     15  C   UNK A   1      24.032  28.302   4.363  1.00  0.00    -0.026 C
ATOM     16  C   UNK A   1      23.609  29.603   3.621  1.00  0.00    -0.040 C
ATOM     17  C   UNK A   1      22.123  29.680   3.240  1.00  0.00    +0.007 C
ATOM     18  C   UNK A   1      21.230  28.734   4.018  1.00  0.00    +0.133 C
ATOM     19  O   UNK A   1      20.131  29.096   4.438  1.00  0.00    -0.300 OA
ATOM     20  C   UNK A   1      21.691  27.299   4.184  1.00  0.00    +0.009 C
ATOM     21  C   UNK A   1      23.807  28.530   5.881  1.00  0.00    -0.059 C
ATOM     22  H   UNK A   1      28.969  26.936   6.652  1.00  0.00    +0.024 H
ATOM     23  H   UNK A   1      30.268  27.682   5.708  1.00  0.00    +0.024 H
ATOM     24  H   UNK A   1      29.895  25.960   5.520  1.00  0.00    +0.024 H
ATOM     25  H   UNK A   1      28.576  29.477   4.777  1.00  0.00    +0.027 H
ATOM     26  H   UNK A   1      27.614  28.703   6.008  1.00  0.00    +0.027 H
ATOM     27  H   UNK A   1      26.108  29.930   4.733  1.00  0.00    +0.027 H
ATOM     28  H   UNK A   1      26.788  29.439   3.205  1.00  0.00    +0.027 H
ATOM     29  H   UNK A   1      25.538  27.642   3.014  1.00  0.00    +0.031 H
ATOM     30  H   UNK A   1      26.075  27.001   5.938  1.00  0.00    +0.031 H
ATOM     31  H   UNK A   1      27.611  25.349   5.110  1.00  0.00    +0.031 H
ATOM     32  H   UNK A   1      28.019  24.756   2.978  1.00  0.00    +0.027 H
ATOM     33  H   UNK A   1      26.439  25.416   2.581  1.00  0.00    +0.027 H
ATOM     34  H   UNK A   1      28.582  26.329   1.299  1.00  0.00    +0.029 H
ATOM     35  H   UNK A   1      27.395  27.512   1.862  1.00  0.00    +0.029 H
ATOM     36  H   UNK A   1      29.393  28.367   2.862  1.00  0.00    +0.061 H
ATOM     37  H   UNK A   1      30.094  25.648   3.286  1.00  0.00    +0.210 H
ATOM     38  H   UNK A   1      25.351  24.587   4.785  1.00  0.00    +0.027 H
ATOM     39  H   UNK A   1      24.500  25.523   5.970  1.00  0.00    +0.027 H
ATOM     40  H   UNK A   1      24.008  25.332   3.026  1.00  0.00    +0.027 H
ATOM     41  H   UNK A   1      22.897  25.050   4.335  1.00  0.00    +0.027 H
ATOM     42  H   UNK A   1      23.178  27.269   2.689  1.00  0.00    +0.031 H
ATOM     43  H   UNK A   1      23.864  30.481   4.227  1.00  0.00    +0.028 H
ATOM     44  H   UNK A   1      24.187  29.712   2.694  1.00  0.00    +0.028 H
ATOM     45  H   UNK A   1      21.762  30.705   3.377  1.00  0.00    +0.035 H
ATOM     46  H   UNK A   1      21.998  29.435   2.178  1.00  0.00    +0.035 H
ATOM     47  H   UNK A   1      21.538  27.007   5.229  1.00  0.00    +0.035 H
ATOM     48  H   UNK A   1      21.062  26.663   3.550  1.00  0.00    +0.035 H
ATOM     49  H   UNK A   1      23.820  27.600   6.454  1.00  0.00    +0.024 H
ATOM     50  H   UNK A   1      24.576  29.187   6.301  1.00  0.00    +0.024 H
ATOM     51  H   UNK A   1      22.846  29.010   6.091  1.00  0.00    +0.024 H
ENDMDL

MODEL 4
REMARK VINA RESULT:      -9.83        5.340        5.980
ATOM      1  C   UNK A   1      29.198  31.012   4.901  1.00  0.00    -0.057 C
ATOM      2  C   UNK A   1      28.321  30.394   3.791  1.00  0.00    -0.003 C
ATOM      3  C   UNK A   1      26.844  30.697   4.162  1.00  0.00    -0.045 C
ATOM      4  C   UNK A   1      25.781  29.868   3.441  1.00  0.00    -0.049 C
ATOM      5  C   UNK A   1      26.122  28.371   3.307  1.00  0.00    -0.033 C
ATOM      6  C   UNK A   1      27.381  28.008   4.123  1.00  0.00    -0.035 C
ATOM      7  C   UNK A   1      28.598  28.859   3.684  1.00  0.00    -0.030 C
ATOM      8  C   UNK A   1      29.057  28.610   2.235  1.00  0.00    -0.047 C
ATOM      9  C   UNK A   1      28.579  29.805   1.423  1.00  0.00    -0.026 C
ATOM     10  C   UNK A   1      28.680  30.972   2.393  1.00  0.00    +0.060 C
ATOM     11  O   UNK A   1      30.004  31.497   2.336  1.00  0.00    -0.393 OA
ATOM     12  C   UNK A   1      27.675  26.496   4.177  1.00  0.00    -0.050 C
ATOM     13  C   UNK A   1      26.860  25.614   3.238  1.00  0.00    -0.049 C
ATOM     14  C   UNK A   1      25.387  26.003   3.018  1.00  0.00    -0.029 C
ATOM     15  C   UNK A   1      24.952  27.382   3.595  1.00  0.00    -0.026 C
ATOM     16  C   UNK A   1      23.647  27.791   2.853  1.00  0.00    -0.040 C
ATOM     17  C   UNK A   1      22.722  26.626   2.472  1.00  0.00    +0.007 C
ATOM     18  C   UNK A   1      22.974  25.350   3.250  1.00  0.00    +0.133 C
ATOM     19  O   UNK A   1      22.041  24.665   3.670  1.00  0.00    -0.300 OA
ATOM     20  C   UNK A   1      24.411  24.893   3.416  1.00  0.00    +0.009 C
ATOM     21  C   UNK A   1      24.636  27.330   5.113  1.00  0.00    -0.059 C
ATOM     22  H   UNK A   1      28.929  30.609   5.884  1.00  0.00    +0.024 H
ATOM     23  H   UNK A   1      29.075  32.100   4.940  1.00  0.00    +0.024 H
ATOM     24  H   UNK A   1      30.262  30.797   4.752  1.00  0.00    +0.024 H
ATOM     25  H   UNK A   1      26.631  31.764   4.009  1.00  0.00    +0.027 H
ATOM     26  H   UNK A   1      26.704  30.531   5.240  1.00  0.00    +0.027 H
ATOM     27  H   UNK A   1      24.830  30.016   3.965  1.00  0.00    +0.027 H
ATOM     28  H   UNK A   1      25.625  30.285   2.437  1.00  0.00    +0.027 H
ATOM     29  H   UNK A   1      26.363  28.224   2.246  1.00  0.00    +0.031 H
ATOM     30  H   UNK A   1      27.197  28.290   5.170  1.00  0.00    +0.031 H
ATOM     31  H   UNK A   1      29.434  28.583   4.342  1.00  0.00    +0.031 H
ATOM     32  H   UNK A   1      30.153  28.571   2.210  1.00  0.00    +0.027 H
ATOM     33  H   UNK A   1      28.699  27.667   1.813  1.00  0.00    +0.027 H
ATOM     34  H   UNK A   1      29.199  29.942   0.531  1.00  0.00    +0.029 H
ATOM     35  H   UNK A   1      27.547  29.662   1.094  1.00  0.00    +0.029 H
ATOM     36  H   UNK A   1      28.010  31.785   2.094  1.00  0.00    +0.061 H
ATOM     37  H   UNK A   1      30.632  30.778   2.518  1.00  0.00    +0.210 H
ATOM     38  H   UNK A   1      28.743  26.300   4.017  1.00  0.00    +0.027 H
ATOM     39  H   UNK A   1      27.486  26.150   5.202  1.00  0.00    +0.027 H
ATOM     40  H   UNK A   1      27.357  25.639   2.258  1.00  0.00    +0.027 H
ATOM     41  H   UNK A   1      26.942  24.570   3.567  1.00  0.00    +0.027 H
ATOM     42  H   UNK A   1      25.298  26.086   1.921  1.00  0.00    +0.031 H
ATOM     43  H   UNK A   1      23.079  28.509   3.459  1.00  0.00    +0.028 H
ATOM     44  H   UNK A   1      23.893  28.326   1.926  1.00  0.00    +0.028 H
ATOM     45  H   UNK A   1      21.678  26.927   2.609  1.00  0.00    +0.035 H
ATOM     46  H   UNK A   1      22.849  26.382   1.410  1.00  0.00    +0.035 H
ATOM     47  H   UNK A   1      24.560  24.598   4.461  1.00  0.00    +0.035 H
ATOM     48  H   UNK A   1      24.563  24.012   2.782  1.00  0.00    +0.035 H
ATOM     49  H   UNK A   1      25.400  26.801   5.686  1.00  0.00    +0.024 H
ATOM     50  H   UNK A   1      24.547  28.338   5.533  1.00  0.00    +0.024 H
ATOM     51  H   UNK A   1      23.687  26.826   5.323  1.00  0.00    +0.024 H
ENDMDL

MODEL 5
REMARK VINA RESULT:      -9.47        5.760        6.310
ATOM      1  C   UNK A   1      29.345  25.688   6.729  1.00  0.00    -0.057 C
ATOM      2  C   UNK A   1      29.047  26.719   5.619  1.00  0.00    -0.003 C
ATOM      3  C   UNK A   1      29.815  28.016   5.990  1.00  0.00    -0.045 C
ATOM      4  C   UNK A   1      29.380  29.292   5.269  1.00  0.00    -0.049 C
ATOM      5  C   UNK A   1      27.853  29.458   5.135  1.00  0.00    -0.033 C
ATOM      6  C   UNK A   1      27.099  28.387   5.951  1.00  0.00    -0.035 C
ATOM      7  C   UNK A   1      27.505  26.958   5.512  1.00  0.00    -0.030 C
ATOM      8  C   UNK A   1      27.120  26.606   4.063  1.00  0.00    -0.047 C
ATOM      9  C   UNK A   1      28.406  26.667   3.251  1.00  0.00    -0.026 C
ATOM     10  C   UNK A   1      29.476  26.192   4.221  1.00  0.00    +0.060 C
ATOM     11  O   UNK A   1      29.540  24.768   4.164  1.00  0.00    -0.393 OA
ATOM     12  C   UNK A   1      25.574  28.602   6.005  1.00  0.00    -0.050 C
ATOM     13  C   UNK A   1      25.006  29.661   5.066  1.00  0.00    -0.049 C
ATOM     14  C   UNK A   1      25.855  30.927   4.846  1.00  0.00    -0.029 C
ATOM     15  C   UNK A   1      27.300  30.887   5.423  1.00  0.00    -0.026 C
ATOM     16  C   UNK A   1      28.113  31.987   4.681  1.00  0.00    -0.040 C
ATOM     17  C   UNK A   1      27.313  33.242   4.300  1.00  0.00    +0.007 C
ATOM     18  C   UNK A   1      26.025  33.420   5.078  1.00  0.00    +0.133 C
ATOM     19  O   UNK A   1      25.682  34.525   5.498  1.00  0.00    -0.300 OA
ATOM     20  C   UNK A   1      25.124  32.212   5.244  1.00  0.00    +0.009 C
ATOM     21  C   UNK A   1      27.355  31.203   6.941  1.00  0.00    -0.059 C
ATOM     22  H   UNK A   1      29.052  26.074   7.712  1.00  0.00    +0.024 H
ATOM     23  H   UNK A   1      30.414  25.450   6.768  1.00  0.00    +0.024 H
ATOM     24  H   UNK A   1      28.794  24.754   6.580  1.00  0.00    +0.024 H
ATOM     25  H   UNK A   1      30.893  27.869   5.837  1.00  0.00    +0.027 H
ATOM     26  H   UNK A   1      29.705  28.203   7.068  1.00  0.00    +0.027 H
ATOM     27  H   UNK A   1      29.830  30.142   5.793  1.00  0.00    +0.027 H
ATOM     28  H   UNK A   1      29.825  29.303   4.265  1.00  0.00    +0.027 H
ATOM     29  H   UNK A   1      27.635  29.278   4.074  1.00  0.00    +0.031 H
ATOM     30  H   UNK A   1      27.426  28.469   6.998  1.00  0.00    +0.031 H
ATOM     31  H   UNK A   1      26.972  26.259   6.170  1.00  0.00    +0.031 H
ATOM     32  H   UNK A   1      26.726  25.583   4.038  1.00  0.00    +0.027 H
ATOM     33  H   UNK A   1      26.346  27.252   3.641  1.00  0.00    +0.027 H
ATOM     34  H   UNK A   1      28.333  26.037   2.359  1.00  0.00    +0.029 H
ATOM     35  H   UNK A   1      28.608  27.690   2.922  1.00  0.00    +0.029 H
ATOM     36  H   UNK A   1      30.463  26.559   3.922  1.00  0.00    +0.061 H
ATOM     37  H   UNK A   1      28.656  24.410   4.346  1.00  0.00    +0.210 H
ATOM     38  H   UNK A   1      25.040  27.658   5.845  1.00  0.00    +0.027 H
ATOM     39  H   UNK A   1      25.308  28.894   7.030  1.00  0.00    +0.027 H
ATOM     40  H   UNK A   1      24.867  29.183   4.086  1.00  0.00    +0.027 H
ATOM     41  H   UNK A   1      23.993  29.924   5.395  1.00  0.00    +0.027 H
ATOM     42  H   UNK A   1      25.962  30.983   3.749  1.00  0.00    +0.031 H
ATOM     43  H   UNK A   1      28.977  32.289   5.287  1.00  0.00    +0.028 H
ATOM     44  H   UNK A   1      28.538  31.580   3.754  1.00  0.00    +0.028 H
ATOM     45  H   UNK A   1      27.939  34.130   4.437  1.00  0.00    +0.035 H
ATOM     46  H   UNK A   1      27.042  33.201   3.238  1.00  0.00    +0.035 H
ATOM     47  H   UNK A   1      24.797  32.167   6.289  1.00  0.00    +0.035 H
ATOM     48  H   UNK A   1      24.242  32.355   4.610  1.00  0.00    +0.035 H
ATOM     49  H   UNK A   1      26.605  30.653   7.514  1.00  0.00    +0.024 H
ATOM     50  H   UNK A   1      28.336  30.958   7.361  1.00  0.00    +0.024 H
ATOM     51  H   UNK A   1      27.188  32.265   7.151  1.00  0.00    +0.024 H
ENDMDL

MODEL 6
REMARK VINA RESULT:      -9.02        6.780        7.760
ATOM      1  C   UNK A   1      22.731  25.774   5.978  1.00  0.00    -0.057 C
ATOM      2  C   UNK A   1      23.791  25.939   4.868  1.00  0.00    -0.003 C
ATOM      3  C   UNK A   1      24.980  25.013   5.239  1.00  0.00    -0.045 C
ATOM      4  C   UNK A   1      26.301  25.283   4.518  1.00  0.00    -0.049 C
ATOM      5  C   UNK A   1      26.659  26.777   4.384  1.00  0.00    -0.033 C
ATOM      6  C   UNK A   1      25.692  27.660   5.200  1.00  0.00    -0.035 C
ATOM      7  C   UNK A   1      24.224  27.438   4.761  1.00  0.00    -0.030 C
ATOM      8  C   UNK A   1      23.923  27.864   3.312  1.00  0.00    -0.047 C
ATOM      9  C   UNK A   1      23.821  26.582   2.500  1.00  0.00    -0.026 C
ATOM     10  C   UNK A   1      23.214  25.580   3.470  1.00  0.00    +0.060 C
ATOM     11  O   UNK A   1      21.793  25.697   3.413  1.00  0.00    -0.393 OA
ATOM     12  C   UNK A   1      26.099  29.146   5.254  1.00  0.00    -0.050 C
ATOM     13  C   UNK A   1      27.221  29.575   4.315  1.00  0.00    -0.049 C
ATOM     14  C   UNK A   1      28.369  28.572   4.095  1.00  0.00    -0.029 C
ATOM     15  C   UNK A   1      28.147  27.144   4.672  1.00  0.00    -0.026 C
ATOM     16  C   UNK A   1      29.135  26.198   3.930  1.00  0.00    -0.040 C
ATOM     17  C   UNK A   1      30.481  26.832   3.549  1.00  0.00    +0.007 C
ATOM     18  C   UNK A   1      30.821  28.087   4.327  1.00  0.00    +0.133 C
ATOM     19  O   UNK A   1      31.961  28.287   4.747  1.00  0.00    -0.300 OA
ATOM     20  C   UNK A   1      29.736  29.134   4.493  1.00  0.00    +0.009 C
ATOM     21  C   UNK A   1      28.453  27.050   6.190  1.00  0.00    -0.059 C
ATOM     22  H   UNK A   1      23.151  26.016   6.961  1.00  0.00    +0.024 H
ATOM     23  H   UNK A   1      22.359  24.744   6.017  1.00  0.00    +0.024 H
ATOM     24  H   UNK A   1      21.873  26.439   5.829  1.00  0.00    +0.024 H
ATOM     25  H   UNK A   1      24.698  23.962   5.086  1.00  0.00    +0.027 H
ATOM     26  H   UNK A   1      25.180  25.098   6.317  1.00  0.00    +0.027 H
ATOM     27  H   UNK A   1      27.087  24.729   5.042  1.00  0.00    +0.027 H
ATOM     28  H   UNK A   1      26.256  24.840   3.514  1.00  0.00    +0.027 H
ATOM     29  H   UNK A   1      26.509  27.015   3.323  1.00  0.00    +0.031 H
ATOM     30  H   UNK A   1      25.732  27.326   6.247  1.00  0.00    +0.031 H
ATOM     31  H   UNK A   1      23.598  28.056   5.419  1.00  0.00    +0.031 H
ATOM     32  H   UNK A   1      22.958  28.385   3.287  1.00  0.00    +0.027 H
ATOM     33  H   UNK A   1      24.662  28.551   2.890  1.00  0.00    +0.027 H
ATOM     34  H   UNK A   1      23.205  26.734   1.608  1.00  0.00    +0.029 H
ATOM     35  H   UNK A   1      24.810  26.252   2.171  1.00  0.00    +0.029 H
ATOM     36  H   UNK A   1      23.453  24.554   3.171  1.00  0.00    +0.061 H
ATOM     37  H   UNK A   1      21.550  26.620   3.595  1.00  0.00    +0.210 H
ATOM     38  H   UNK A   1      25.230  29.795   5.094  1.00  0.00    +0.027 H
ATOM     39  H   UNK A   1      26.422  29.372   6.279  1.00  0.00    +0.027 H
ATOM     40  H   UNK A   1      26.765  29.773   3.335  1.00  0.00    +0.027 H
ATOM     41  H   UNK A   1      27.611  30.546   4.644  1.00  0.00    +0.027 H
ATOM     42  H   UNK A   1      28.411  28.458   2.998  1.00  0.00    +0.031 H
ATOM     43  H   UNK A   1      29.325  25.303   4.536  1.00  0.00    +0.028 H
ATOM     44  H   UNK A   1      28.677  25.828   3.003  1.00  0.00    +0.028 H
ATOM     45  H   UNK A   1      31.283  26.099   3.686  1.00  0.00    +0.035 H
ATOM     46  H   UNK A   1      30.475  27.106   2.487  1.00  0.00    +0.035 H
ATOM     47  H   UNK A   1      29.733  29.464   5.538  1.00  0.00    +0.035 H
ATOM     48  H   UNK A   1      29.990  29.991   3.859  1.00  0.00    +0.035 H
ATOM     49  H   UNK A   1      28.003  27.863   6.763  1.00  0.00    +0.024 H
ATOM     50  H   UNK A   1      28.086  26.107   6.610  1.00  0.00    +0.024 H
ATOM     51  H   UNK A   1      29.528  27.081   6.400  1.00  0.00    +0.024 H
ENDMDL

MODEL 7
REMARK VINA RESULT:      -8.59        9.610       10.290
ATOM      1  C   UNK A   1      30.403  29.143   6.037  1.00  0.00    -0.057 C
ATOM      2  C   UNK A   1      29.358  28.897   4.927  1.00  0.00    -0.003 C
ATOM      3  C   UNK A   1      28.101  29.729   5.298  1.00  0.00    -0.045 C
ATOM      4  C   UNK A   1      26.805  29.357   4.577  1.00  0.00    -0.049 C
ATOM      5  C   UNK A   1      26.564  27.840   4.443  1.00  0.00    -0.033 C
ATOM      6  C   UNK A   1      27.596  27.034   5.259  1.00  0.00    -0.035 C
ATOM      7  C   UNK A   1      29.043  27.369   4.820  1.00  0.00    -0.030 C
ATOM      8  C   UNK A   1      29.375  26.967   3.371  1.00  0.00    -0.047 C
ATOM      9  C   UNK A   1      29.378  28.254   2.559  1.00  0.00    -0.026 C
ATOM     10  C   UNK A   1      29.906  29.300   3.529  1.00  0.00    +0.060 C
ATOM     11  O   UNK A   1      31.331  29.292   3.472  1.00  0.00    -0.393 OA
ATOM     12  C   UNK A   1      27.305  25.521   5.313  1.00  0.00    -0.050 C
ATOM     13  C   UNK A   1      26.220  25.006   4.374  1.00  0.00    -0.049 C
ATOM     14  C   UNK A   1      24.998  25.918   4.154  1.00  0.00    -0.029 C
ATOM     15  C   UNK A   1      25.109  27.359   4.731  1.00  0.00    -0.026 C
ATOM     16  C   UNK A   1      24.051  28.226   3.989  1.00  0.00    -0.040 C
ATOM     17  C   UNK A   1      22.757  27.489   3.608  1.00  0.00    +0.007 C
ATOM     18  C   UNK A   1      22.516  26.211   4.386  1.00  0.00    +0.133 C
ATOM     19  O   UNK A   1      21.395  25.924   4.806  1.00  0.00    -0.300 OA
ATOM     20  C   UNK A   1      23.678  25.252   4.552  1.00  0.00    +0.009 C
ATOM     21  C   UNK A   1      24.796  27.429   6.249  1.00  0.00    -0.059 C
ATOM     22  H   UNK A   1      30.003  28.870   7.020  1.00  0.00    +0.024 H
ATOM     23  H   UNK A   1      30.694  30.199   6.076  1.00  0.00    +0.024 H
ATOM     24  H   UNK A   1      31.309  28.547   5.888  1.00  0.00    +0.024 H
ATOM     25  H   UNK A   1      28.301  30.798   5.145  1.00  0.00    +0.027 H
ATOM     26  H   UNK A   1      27.909  29.628   6.376  1.00  0.00    +0.027 H
ATOM     27  H   UNK A   1      25.979  29.849   5.101  1.00  0.00    +0.027 H
ATOM     28  H   UNK A   1      26.816  29.802   3.573  1.00  0.00    +0.027 H
ATOM     29  H   UNK A   1      26.732  27.614   3.382  1.00  0.00    +0.031 H
ATOM     30  H   UNK A   1      27.531  27.364   6.306  1.00  0.00    +0.031 H
ATOM     31  H   UNK A   1      29.715  26.801   5.478  1.00  0.00    +0.031 H
ATOM     32  H   UNK A   1      30.378  26.522   3.346  1.00  0.00    +0.027 H
ATOM     33  H   UNK A   1      28.692  26.226   2.949  1.00  0.00    +0.027 H
ATOM     34  H   UNK A   1      30.004  28.150   1.667  1.00  0.00    +0.029 H
ATOM     35  H   UNK A   1      28.367  28.506   2.230  1.00  0.00    +0.029 H
ATOM     36  H   UNK A   1      29.588  30.303   3.230  1.00  0.00    +0.061 H
ATOM     37  H   UNK A   1      31.645  28.392   3.654  1.00  0.00    +0.210 H
ATOM     38  H   UNK A   1      28.222  24.941   5.153  1.00  0.00    +0.027 H
ATOM     39  H   UNK A   1      27.001  25.271   6.338  1.00  0.00    +0.027 H
ATOM     40  H   UNK A   1      26.690  24.844   3.394  1.00  0.00    +0.027 H
ATOM     41  H   UNK A   1      25.906  24.008   4.703  1.00  0.00    +0.027 H
ATOM     42  H   UNK A   1      24.947  26.028   3.057  1.00  0.00    +0.031 H
ATOM     43  H   UNK A   1      23.792  29.103   4.595  1.00  0.00    +0.028 H
ATOM     44  H   UNK A   1      24.478  28.630   3.062  1.00  0.00    +0.028 H
ATOM     45  H   UNK A   1      21.901  28.158   3.745  1.00  0.00    +0.035 H
ATOM     46  H   UNK A   1      22.785  27.216   2.546  1.00  0.00    +0.035 H
ATOM     47  H   UNK A   1      23.706  24.923   5.597  1.00  0.00    +0.035 H
ATOM     48  H   UNK A   1      23.491  24.377   3.918  1.00  0.00    +0.035 H
ATOM     49  H   UNK A   1      25.308  26.653   6.822  1.00  0.00    +0.024 H
ATOM     50  H   UNK A   1      25.089  28.397   6.669  1.00  0.00    +0.024 H
ATOM     51  H   UNK A   1      23.727  27.315   6.459  1.00  0.00    +0.024 H
ENDMDL

MODEL 8
REMARK VINA RESULT:      -7.98        9.240       10.420
ATOM      1  C   UNK A   1      29.989  31.679   6.937  1.00  0.00    -0.057 C
ATOM      2  C   UNK A   1      29.076  31.115   5.827  1.00  0.00    -0.003 C
ATOM      3  C   UNK A   1      27.620  31.506   6.198  1.00  0.00    -0.045 C
ATOM      4  C   UNK A   1      26.508  30.744   5.477  1.00  0.00    -0.049 C
ATOM      5  C   UNK A   1      26.758  29.229   5.343  1.00  0.00    -0.033 C
ATOM      6  C   UNK A   1      27.992  28.790   6.159  1.00  0.00    -0.035 C
ATOM      7  C   UNK A   1      29.259  29.566   5.720  1.00  0.00    -0.030 C
ATOM      8  C   UNK A   1      29.702  29.289   4.271  1.00  0.00    -0.047 C
ATOM      9  C   UNK A   1      29.298  30.511   3.459  1.00  0.00    -0.026 C
ATOM     10  C   UNK A   1      29.468  31.670   4.429  1.00  0.00    +0.060 C
ATOM     11  O   UNK A   1      30.822  32.114   4.372  1.00  0.00    -0.393 OA
ATOM     12  C   UNK A   1      28.195  27.263   6.213  1.00  0.00    -0.050 C
ATOM     13  C   UNK A   1      27.328  26.432   5.274  1.00  0.00    -0.049 C
ATOM     14  C   UNK A   1      25.880  26.910   5.054  1.00  0.00    -0.029 C
ATOM     15  C   UNK A   1      25.530  28.312   5.631  1.00  0.00    -0.026 C
ATOM     16  C   UNK A   1      24.252  28.800   4.889  1.00  0.00    -0.040 C
ATOM     17  C   UNK A   1      23.258  27.692   4.508  1.00  0.00    +0.007 C
ATOM     18  C   UNK A   1      23.433  26.404   5.286  1.00  0.00    +0.133 C
ATOM     19  O   UNK A   1      22.460  25.777   5.706  1.00  0.00    -0.300 OA
ATOM     20  C   UNK A   1      24.839  25.861   5.452  1.00  0.00    +0.009 C
ATOM     21  C   UNK A   1      25.211  28.280   7.149  1.00  0.00    -0.059 C
ATOM     22  H   UNK A   1      29.696  31.293   7.920  1.00  0.00    +0.024 H
ATOM     23  H   UNK A   1      29.931  32.772   6.976  1.00  0.00    +0.024 H
ATOM     24  H   UNK A   1      31.037  31.400   6.788  1.00  0.00    +0.024 H
ATOM     25  H   UNK A   1      27.472  32.584   6.045  1.00  0.00    +0.027 H
ATOM     26  H   UNK A   1      27.470  31.350   7.276  1.00  0.00    +0.027 H
ATOM     27  H   UNK A   1      25.568  30.949   6.001  1.00  0.00    +0.027 H
ATOM     28  H   UNK A   1      26.377  31.170   4.473  1.00  0.00    +0.027 H
ATOM     29  H   UNK A   1      26.990  29.068   4.282  1.00  0.00    +0.031 H
ATOM     30  H   UNK A   1      27.826  29.083   7.206  1.00  0.00    +0.031 H
ATOM     31  H   UNK A   1      30.076  29.239   6.378  1.00  0.00    +0.031 H
ATOM     32  H   UNK A   1      30.794  29.184   4.246  1.00  0.00    +0.027 H
ATOM     33  H   UNK A   1      29.288  28.370   3.849  1.00  0.00    +0.027 H
ATOM     34  H   UNK A   1      29.925  30.610   2.567  1.00  0.00    +0.029 H
ATOM     35  H   UNK A   1      28.259  30.431   3.130  1.00  0.00    +0.029 H
ATOM     36  H   UNK A   1      28.849  32.522   4.130  1.00  0.00    +0.061 H
ATOM     37  H   UNK A   1      31.405  31.358   4.554  1.00  0.00    +0.210 H
ATOM     38  H   UNK A   1      29.248  27.002   6.053  1.00  0.00    +0.027 H
ATOM     39  H   UNK A   1      27.985  26.929   7.238  1.00  0.00    +0.027 H
ATOM     40  H   UNK A   1      27.825  26.426   4.294  1.00  0.00    +0.027 H
ATOM     41  H   UNK A   1      27.346  25.385   5.603  1.00  0.00    +0.027 H
ATOM     42  H   UNK A   1      25.797  26.998   3.957  1.00  0.00    +0.031 H
ATOM     43  H   UNK A   1      23.729  29.551   5.495  1.00  0.00    +0.028 H
ATOM     44  H   UNK A   1      24.530  29.318   3.962  1.00  0.00    +0.028 H
ATOM     45  H   UNK A   1      22.235  28.056   4.645  1.00  0.00    +0.035 H
ATOM     46  H   UNK A   1      23.370  27.442   3.446  1.00  0.00    +0.035 H
ATOM     47  H   UNK A   1      24.970  25.558   6.497  1.00  0.00    +0.035 H
ATOM     48  H   UNK A   1      24.938  24.972   4.818  1.00  0.00    +0.035 H
ATOM     49  H   UNK A   1      25.943  27.706   7.722  1.00  0.00    +0.024 H
ATOM     50  H   UNK A   1      25.184  29.291   7.569  1.00  0.00    +0.024 H
ATOM     51  H   UNK A   1      24.233  27.834   7.359  1.00  0.00    +0.024 H
ENDMDL

MODEL 9
REMARK VINA RESULT:      -7.58       12.390       12.950
ATOM      1  C   UNK A   1      29.025  24.838   5.570  1.00  0.00    -0.057 C
ATOM      2  C   UNK A   1      28.248  25.578   4.460  1.00  0.00    -0.003 C
ATOM      3  C   UNK A   1      28.258  27.085   4.831  1.00  0.00    -0.045 C
ATOM      4  C   UNK A   1      27.239  27.968   4.110  1.00  0.00    -0.049 C
ATOM      5  C   UNK A   1      25.837  27.341   3.976  1.00  0.00    -0.033 C
ATOM      6  C   UNK A   1      25.726  26.037   4.792  1.00  0.00    -0.035 C
ATOM      7  C   UNK A   1      26.796  25.007   4.353  1.00  0.00    -0.030 C
ATOM      8  C   UNK A   1      26.641  24.509   2.904  1.00  0.00    -0.047 C
ATOM      9  C   UNK A   1      27.721  25.210   2.092  1.00  0.00    -0.026 C
ATOM     10  C   UNK A   1      28.885  25.339   3.062  1.00  0.00    +0.060 C
ATOM     11  O   UNK A   1      29.657  24.141   3.005  1.00  0.00    -0.393 OA
ATOM     12  C   UNK A   1      24.299  25.454   4.846  1.00  0.00    -0.050 C
ATOM     13  C   UNK A   1      23.275  26.082   3.907  1.00  0.00    -0.049 C
ATOM     14  C   UNK A   1      23.371  27.603   3.687  1.00  0.00    -0.029 C
ATOM     15  C   UNK A   1      24.639  28.297   4.264  1.00  0.00    -0.026 C
ATOM     16  C   UNK A   1      24.787  29.657   3.522  1.00  0.00    -0.040 C
ATOM     17  C   UNK A   1      23.464  30.338   3.141  1.00  0.00    +0.007 C
ATOM     18  C   UNK A   1      22.261  29.843   3.919  1.00  0.00    +0.133 C
ATOM     19  O   UNK A   1      21.408  30.624   4.339  1.00  0.00    -0.300 OA
ATOM     20  C   UNK A   1      22.092  28.345   4.085  1.00  0.00    +0.009 C
ATOM     21  C   UNK A   1      24.527  28.598   5.782  1.00  0.00    -0.059 C
ATOM     22  H   UNK A   1      28.578  25.023   6.553  1.00  0.00    +0.024 H
ATOM     23  H   UNK A   1      30.068  25.170   5.609  1.00  0.00    +0.024 H
ATOM     24  H   UNK A   1      29.021  23.753   5.421  1.00  0.00    +0.024 H
ATOM     25  H   UNK A   1      29.264  27.502   4.678  1.00  0.00    +0.027 H
ATOM     26  H   UNK A   1      28.069  27.191   5.909  1.00  0.00    +0.027 H
ATOM     27  H   UNK A   1      27.200  28.929   4.634  1.00  0.00    +0.027 H
ATOM     28  H   UNK A   1      27.618  28.202   3.106  1.00  0.00    +0.027 H
ATOM     29  H   UNK A   1      25.740  27.077   2.915  1.00  0.00    +0.031 H
ATOM     30  H   UNK A   1      25.966  26.272   5.839  1.00  0.00    +0.031 H
ATOM     31  H   UNK A   1      26.688  24.134   5.011  1.00  0.00    +0.031 H
ATOM     32  H   UNK A   1      26.816  23.427   2.879  1.00  0.00    +0.027 H
ATOM     33  H   UNK A   1      25.647  24.677   2.482  1.00  0.00    +0.027 H
ATOM     34  H   UNK A   1      27.975  24.629   1.200  1.00  0.00    +0.029 H
ATOM     35  H   UNK A   1      27.380  26.195   1.763  1.00  0.00    +0.029 H
ATOM     36  H   UNK A   1      29.552  26.153   2.763  1.00  0.00    +0.061 H
ATOM     37  H   UNK A   1      29.075  23.386   3.187  1.00  0.00    +0.210 H
ATOM     38  H   UNK A   1      24.314  24.369   4.686  1.00  0.00    +0.027 H
ATOM     39  H   UNK A   1      23.923  25.572   5.871  1.00  0.00    +0.027 H
ATOM     40  H   UNK A   1      23.396  25.600   2.927  1.00  0.00    +0.027 H
ATOM     41  H   UNK A   1      22.268  25.799   4.236  1.00  0.00    +0.027 H
ATOM     42  H   UNK A   1      23.435  27.706   2.590  1.00  0.00    +0.031 H
ATOM     43  H   UNK A   1      25.381  30.353   4.128  1.00  0.00    +0.028 H
ATOM     44  H   UNK A   1      25.359  29.520   2.595  1.00  0.00    +0.028 H
ATOM     45  H   UNK A   1      23.556  31.420   3.278  1.00  0.00    +0.035 H
ATOM     46  H   UNK A   1      23.250  30.166   2.079  1.00  0.00    +0.035 H
ATOM     47  H   UNK A   1      21.832  28.141   5.130  1.00  0.00    +0.035 H
ATOM     48  H   UNK A   1      21.258  28.024   3.451  1.00  0.00    +0.035 H
ATOM     49  H   UNK A   1      24.157  27.745   6.355  1.00  0.00    +0.024 H
ATOM     50  H   UNK A   1      25.498  28.881   6.202  1.00  0.00    +0.024 H
ATOM     51  H   UNK A   1      23.848  29.431   5.992  1.00  0.00    +0.024 H
ENDMDL
