MODEL 1
REMARK VINA RESULT:      -9.83        0.000        0.000
ATOM      1  C   UNK A   1      24.946  28.105   3.531  1.00  0.00    -0.032 C
ATOM      2  C   UNK A   1      26.319  28.125   4.208  1.00  0.00    +0.121 C
ATOM      3  C   UNK A   1      26.905  26.709   4.178  1.00  0.00    +0.259 C
ATOM      4  O   UNK A   1      26.961  26.033   3.155  1.00  0.00    -0.271 OA
ATOM      5  N   UNK A   1      27.432  26.408   5.418  1.00  0.00    -0.255 NA
ATOM      6  C   UNK A   1      27.052  27.378   6.349  1.00  0.00    +0.188 C
ATOM      7  S   UNK A   1      27.383  27.408   7.996  1.00  0.00    -0.039 S
ATOM      8  N   UNK A   1      26.293  28.365   5.652  1.00  0.00    -0.304 NA
ATOM      9  C   UNK A   1      25.415  29.323   6.235  1.00  0.00    +0.045 A
ATOM     10  C   UNK A   1      25.352  30.634   5.750  1.00  0.00    -0.025 A
ATOM     11  C   UNK A   1      24.467  31.588   6.298  1.00  0.00    +0.075 A
ATOM     12  C   UNK A   1      23.620  31.208   7.351  1.00  0.00    +0.064 A
ATOM     13  C   UNK A   1      23.665  29.896   7.832  1.00  0.00    -0.042 A
ATOM     14  C   UNK A   1      24.550  28.966   7.276  1.00  0.00    -0.037 A
ATOM     15  C   UNK A   1      22.696  32.132   7.950  1.00  0.00    +0.100 C
ATOM     16  N   UNK A   1      21.946  32.872   8.431  1.00  0.00    -0.192 NA
ATOM     17  C   UNK A   1      24.444  32.997   5.756  1.00  0.00    +0.417 C
ATOM     18  F   UNK A   1      23.227  33.343   5.260  1.00  0.00    -0.166 F
ATOM     19  F   UNK A   1      24.761  33.924   6.697  1.00  0.00    -0.166 F
ATOM     20  F   UNK A   1      25.326  33.191   4.735  1.00  0.00    -0.166 F
ATOM     21  C   UNK A   1      28.196  25.222   5.646  1.00  0.00    +0.054 A
ATOM     22  C   UNK A   1      27.873  24.024   4.990  1.00  0.00    -0.001 A
ATOM     23  C   UNK A   1      28.622  22.862   5.193  1.00  0.00    +0.138 A
ATOM     24  C   UNK A   1      29.725  22.853   6.042  1.00  0.00    +0.075 A
ATOM     25  C   UNK A   1      30.072  24.046   6.686  1.00  0.00    -0.044 A
ATOM     26  C   UNK A   1      29.319  25.213   6.486  1.00  0.00    -0.037 A
ATOM     27  C   UNK A   1      30.560  21.644   6.291  1.00  0.00    +0.253 C
ATOM     28  O   UNK A   1      31.552  21.727   7.009  1.00  0.00    -0.269 OA
ATOM     29  N   UNK A   1      30.174  20.467   5.687  1.00  0.00    -0.355 NA
ATOM     30  C   UNK A   1      30.967  19.270   5.801  1.00  0.00    +0.006 C
ATOM     31  F   UNK A   1      28.241  21.752   4.540  1.00  0.00    -0.206 F
ATOM     32  C   UNK A   1      27.317  29.023   3.466  1.00  0.00    -0.032 C
ATOM     33  H   UNK A   1      24.262  27.419   4.043  1.00  0.00    +0.026 H
ATOM     34  H   UNK A   1      24.481  29.096   3.521  1.00  0.00    +0.026 H
ATOM     35  H   UNK A   1      25.022  27.771   2.489  1.00  0.00    +0.026 H
ATOM     36  H   UNK A   1      26.025  30.957   4.961  1.00  0.00    +0.065 H
ATOM     37  H   UNK A   1      23.008  29.581   8.642  1.00  0.00    +0.064 H
ATOM     38  H   UNK A   1      24.518  27.947   7.656  1.00  0.00    +0.065 H
ATOM     39  H   UNK A   1      27.016  23.953   4.325  1.00  0.00    +0.068 H
ATOM     40  H   UNK A   1      30.939  24.081   7.344  1.00  0.00    +0.063 H
ATOM     41  H   UNK A   1      29.675  26.119   6.970  1.00  0.00    +0.065 H
ATOM     42  H   UNK A   1      29.408  20.475   5.023  1.00  0.00    +0.163 H
ATOM     43  H   UNK A   1      31.350  19.161   6.819  1.00  0.00    +0.045 H
ATOM     44  H   UNK A   1      30.341  18.412   5.545  1.00  0.00    +0.045 H
ATOM     45  H   UNK A   1      31.804  19.338   5.102  1.00  0.00    +0.045 H
ATOM     46  H   UNK A   1      26.934  30.035   3.321  1.00  0.00    +0.026 H
ATOM     47  H   UNK A   1      27.539  28.625   2.468  1.00  0.00    +0.026 H
ATOM     48  H   UNK A   1      28.269  29.097   4.005  1.00  0.00    +0.026 H
ENDMDL

MODEL 2
REMARK VINA RESULT:      -9.26        2.330        2.960
ATOM      1  C   UNK A   1      28.140  27.713   2.463  1.00  0.00    -0.032 C
ATOM      2  C   UNK A   1      27.038  26.895   3.140  1.00  0.00    +0.121 C
ATOM      3  C   UNK A   1      25.735  27.699   3.110  1.00  0.00    +0.259 C
ATOM      4  O   UNK A   1      25.293  28.214   2.087  1.00  0.00    -0.271 OA
ATOM      5  N   UNK A   1      25.131  27.635   4.350  1.00  0.00    -0.255 NA
ATOM      6  C   UNK A   1      26.007  27.071   5.281  1.00  0.00    +0.188 C
ATOM      7  S   UNK A   1      25.756  26.853   6.928  1.00  0.00    -0.039 S
ATOM      8  N   UNK A   1      27.199  26.715   4.584  1.00  0.00    -0.304 NA
ATOM      9  C   UNK A   1      28.473  26.452   5.167  1.00  0.00    +0.045 A
ATOM     10  C   UNK A   1      29.291  25.425   4.682  1.00  0.00    -0.025 A
ATOM     11  C   UNK A   1      30.567  25.170   5.230  1.00  0.00    +0.075 A
ATOM     12  C   UNK A   1      31.031  25.974   6.283  1.00  0.00    +0.064 A
ATOM     13  C   UNK A   1      30.227  27.011   6.764  1.00  0.00    -0.042 A
ATOM     14  C   UNK A   1      28.965  27.247   6.208  1.00  0.00    -0.037 A
ATOM     15  C   UNK A   1      32.321  25.765   6.882  1.00  0.00    +0.100 C
ATOM     16  N   UNK A   1      33.363  25.604   7.363  1.00  0.00    -0.192 NA
ATOM     17  C   UNK A   1      31.410  24.041   4.688  1.00  0.00    +0.417 C
ATOM     18  F   UNK A   1      32.599  24.473   4.192  1.00  0.00    -0.166 F
ATOM     19  F   UNK A   1      31.696  23.104   5.629  1.00  0.00    -0.166 F
ATOM     20  F   UNK A   1      30.808  23.368   3.667  1.00  0.00    -0.166 F
ATOM     21  C   UNK A   1      23.817  28.150   4.578  1.00  0.00    +0.054 A
ATOM     22  C   UNK A   1      23.378  29.310   3.922  1.00  0.00    -0.001 A
ATOM     23  C   UNK A   1      22.091  29.814   4.125  1.00  0.00    +0.138 A
ATOM     24  C   UNK A   1      21.191  29.176   4.974  1.00  0.00    +0.075 A
ATOM     25  C   UNK A   1      21.608  28.005   5.618  1.00  0.00    -0.044 A
ATOM     26  C   UNK A   1      22.902  27.499   5.418  1.00  0.00    -0.037 A
ATOM     27  C   UNK A   1      19.806  29.667   5.223  1.00  0.00    +0.253 C
ATOM     28  O   UNK A   1      19.051  29.019   5.941  1.00  0.00    -0.269 OA
ATOM     29  N   UNK A   1      19.431  30.847   4.619  1.00  0.00    -0.355 NA
ATOM     30  C   UNK A   1      18.087  31.354   4.733  1.00  0.00    +0.006 C
ATOM     31  F   UNK A   1      21.750  30.936   3.472  1.00  0.00    -0.206 F
ATOM     32  C   UNK A   1      26.755  25.582   2.398  1.00  0.00    -0.032 C
ATOM     33  H   UNK A   1      28.293  28.670   2.975  1.00  0.00    +0.026 H
ATOM     34  H   UNK A   1      29.097  27.183   2.453  1.00  0.00    +0.026 H
ATOM     35  H   UNK A   1      27.883  27.940   1.421  1.00  0.00    +0.026 H
ATOM     36  H   UNK A   1      28.934  24.770   3.893  1.00  0.00    +0.065 H
ATOM     37  H   UNK A   1      30.575  27.651   7.574  1.00  0.00    +0.064 H
ATOM     38  H   UNK A   1      28.394  28.092   6.588  1.00  0.00    +0.065 H
ATOM     39  H   UNK A   1      24.031  29.869   3.257  1.00  0.00    +0.068 H
ATOM     40  H   UNK A   1      20.925  27.469   6.276  1.00  0.00    +0.063 H
ATOM     41  H   UNK A   1      23.143  26.556   5.902  1.00  0.00    +0.065 H
ATOM     42  H   UNK A   1      20.056  31.290   3.955  1.00  0.00    +0.163 H
ATOM     43  H   UNK A   1      17.713  31.218   5.751  1.00  0.00    +0.045 H
ATOM     44  H   UNK A   1      18.093  32.416   4.477  1.00  0.00    +0.045 H
ATOM     45  H   UNK A   1      17.448  30.809   4.034  1.00  0.00    +0.045 H
ATOM     46  H   UNK A   1      27.657  24.985   2.253  1.00  0.00    +0.026 H
ATOM     47  H   UNK A   1      26.342  25.774   1.400  1.00  0.00    +0.026 H
ATOM     48  H   UNK A   1      26.026  24.965   2.937  1.00  0.00    +0.026 H
ENDMDL

MODEL 3
REMARK VINA RESULT:      -8.85        3.560        4.490
ATOM      1  C   UNK A   1      27.980  28.045   2.083  1.00  0.00    -0.032 C
ATOM      2  C   UNK A   1      27.014  27.069   2.760  1.00  0.00    +0.121 C
ATOM      3  C   UNK A   1      25.604  27.667   2.730  1.00  0.00    +0.259 C
ATOM      4  O   UNK A   1      25.090  28.110   1.707  1.00  0.00    -0.271 OA
ATOM      5  N   UNK A   1      25.017  27.513   3.970  1.00  0.00    -0.255 NA
ATOM      6  C   UNK A   1      25.968  27.088   4.901  1.00  0.00    +0.188 C
ATOM      7  S   UNK A   1      25.752  26.834   6.548  1.00  0.00    -0.039 S
ATOM      8  N   UNK A   1      27.200  26.915   4.204  1.00  0.00    -0.304 NA
ATOM      9  C   UNK A   1      28.499  26.848   4.787  1.00  0.00    +0.045 A
ATOM     10  C   UNK A   1      29.463  25.956   4.302  1.00  0.00    -0.025 A
ATOM     11  C   UNK A   1      30.763  25.897   4.850  1.00  0.00    +0.075 A
ATOM     12  C   UNK A   1      31.100  26.762   5.903  1.00  0.00    +0.064 A
ATOM     13  C   UNK A   1      30.148  27.665   6.384  1.00  0.00    -0.042 A
ATOM     14  C   UNK A   1      28.866  27.709   5.828  1.00  0.00    -0.037 A
ATOM     15  C   UNK A   1      32.406  26.750   6.502  1.00  0.00    +0.100 C
ATOM     16  N   UNK A   1      33.461  26.748   6.983  1.00  0.00    -0.192 NA
ATOM     17  C   UNK A   1      31.766  24.908   4.308  1.00  0.00    +0.417 C
ATOM     18  F   UNK A   1      32.876  25.514   3.812  1.00  0.00    -0.166 F
ATOM     19  F   UNK A   1      32.191  24.025   5.249  1.00  0.00    -0.166 F
ATOM     20  F   UNK A   1      31.273  24.152   3.287  1.00  0.00    -0.166 F
ATOM     21  C   UNK A   1      23.640  27.823   4.198  1.00  0.00    +0.054 A
ATOM     22  C   UNK A   1      23.031  28.904   3.542  1.00  0.00    -0.001 A
ATOM     23  C   UNK A   1      21.682  29.208   3.745  1.00  0.00    +0.138 A
ATOM     24  C   UNK A   1      20.889  28.441   4.594  1.00  0.00    +0.075 A
ATOM     25  C   UNK A   1      21.478  27.347   5.238  1.00  0.00    -0.044 A
ATOM     26  C   UNK A   1      22.834  27.042   5.038  1.00  0.00    -0.037 A
ATOM     27  C   UNK A   1      19.446  28.718   4.843  1.00  0.00    +0.253 C
ATOM     28  O   UNK A   1      18.798  27.963   5.561  1.00  0.00    -0.269 OA
ATOM     29  N   UNK A   1      18.897  29.828   4.239  1.00  0.00    -0.355 NA
ATOM     30  C   UNK A   1      17.492  30.126   4.353  1.00  0.00    +0.006 C
ATOM     31  F   UNK A   1      21.176  30.266   3.092  1.00  0.00    -0.206 F
ATOM     32  C   UNK A   1      26.932  25.729   2.018  1.00  0.00    -0.032 C
ATOM     33  H   UNK A   1      27.986  29.014   2.595  1.00  0.00    +0.026 H
ATOM     34  H   UNK A   1      29.006  27.665   2.073  1.00  0.00    +0.026 H
ATOM     35  H   UNK A   1      27.691  28.229   1.041  1.00  0.00    +0.026 H
ATOM     36  H   UNK A   1      29.209  25.255   3.513  1.00  0.00    +0.065 H
ATOM     37  H   UNK A   1      30.396  28.351   7.194  1.00  0.00    +0.064 H
ATOM     38  H   UNK A   1      28.173  28.458   6.208  1.00  0.00    +0.065 H
ATOM     39  H   UNK A   1      23.592  29.556   2.877  1.00  0.00    +0.068 H
ATOM     40  H   UNK A   1      20.884  26.714   5.896  1.00  0.00    +0.063 H
ATOM     41  H   UNK A   1      23.215  26.146   5.522  1.00  0.00    +0.065 H
ATOM     42  H   UNK A   1      19.449  30.359   3.575  1.00  0.00    +0.163 H
ATOM     43  H   UNK A   1      17.142  29.935   5.371  1.00  0.00    +0.045 H
ATOM     44  H   UNK A   1      17.337  31.177   4.097  1.00  0.00    +0.045 H
ATOM     45  H   UNK A   1      16.943  29.490   3.654  1.00  0.00    +0.045 H
ATOM     46  H   UNK A   1      27.914  25.275   1.873  1.00  0.00    +0.026 H
ATOM     47  H   UNK A   1      26.495  25.856   1.020  1.00  0.00    +0.026 H
ATOM     48  H   UNK A   1      26.305  25.008   2.557  1.00  0.00    +0.026 H
ENDMDL

MODEL 4
REMARK VINA RESULT:      -8.43        5.340        5.980
ATOM      1  C   UNK A   1      27.452  30.447   1.315  1.00  0.00    -0.032 C
ATOM      2  C   UNK A   1      27.687  29.094   1.992  1.00  0.00    +0.121 C
ATOM      3  C   UNK A   1      26.381  28.293   1.962  1.00  0.00    +0.259 C
ATOM      4  O   UNK A   1      25.722  28.131   0.939  1.00  0.00    -0.271 OA
ATOM      5  N   UNK A   1      26.166  27.725   3.202  1.00  0.00    -0.255 NA
ATOM      6  C   UNK A   1      27.064  28.253   4.133  1.00  0.00    +0.188 C
ATOM      7  S   UNK A   1      27.146  27.930   5.780  1.00  0.00    -0.039 S
ATOM      8  N   UNK A   1      27.920  29.157   3.436  1.00  0.00    -0.304 NA
ATOM      9  C   UNK A   1      28.728  30.175   4.019  1.00  0.00    +0.045 A
ATOM     10  C   UNK A   1      30.013  30.443   3.534  1.00  0.00    -0.025 A
ATOM     11  C   UNK A   1      30.816  31.467   4.082  1.00  0.00    +0.075 A
ATOM     12  C   UNK A   1      30.308  32.244   5.135  1.00  0.00    +0.064 A
ATOM     13  C   UNK A   1      29.020  31.993   5.616  1.00  0.00    -0.042 A
ATOM     14  C   UNK A   1      28.240  30.973   5.060  1.00  0.00    -0.037 A
ATOM     15  C   UNK A   1      31.075  33.301   5.734  1.00  0.00    +0.100 C
ATOM     16  N   UNK A   1      31.689  34.158   6.215  1.00  0.00    -0.192 NA
ATOM     17  C   UNK A   1      32.204  31.711   3.540  1.00  0.00    +0.417 C
ATOM     18  F   UNK A   1      32.354  32.967   3.044  1.00  0.00    -0.166 F
ATOM     19  F   UNK A   1      33.169  31.544   4.481  1.00  0.00    -0.166 F
ATOM     20  F   UNK A   1      32.534  30.870   2.519  1.00  0.00    -0.166 F
ATOM     21  C   UNK A   1      25.115  26.784   3.430  1.00  0.00    +0.054 A
ATOM     22  C   UNK A   1      23.881  26.915   2.774  1.00  0.00    -0.001 A
ATOM     23  C   UNK A   1      22.851  25.993   2.977  1.00  0.00    +0.138 A
ATOM     24  C   UNK A   1      23.015  24.902   3.826  1.00  0.00    +0.075 A
ATOM     25  C   UNK A   1      24.248  24.747   4.470  1.00  0.00    -0.044 A
ATOM     26  C   UNK A   1      25.283  25.674   4.270  1.00  0.00    -0.037 A
ATOM     27  C   UNK A   1      21.952  23.888   4.075  1.00  0.00    +0.253 C
ATOM     28  O   UNK A   1      22.191  22.922   4.793  1.00  0.00    -0.269 OA
ATOM     29  N   UNK A   1      20.730  24.084   3.471  1.00  0.00    -0.355 NA
ATOM     30  C   UNK A   1      19.672  23.113   3.585  1.00  0.00    +0.006 C
ATOM     31  F   UNK A   1      21.696  26.195   2.324  1.00  0.00    -0.206 F
ATOM     32  C   UNK A   1      28.730  28.250   1.250  1.00  0.00    -0.032 C
ATOM     33  H   UNK A   1      26.667  31.014   1.827  1.00  0.00    +0.026 H
ATOM     34  H   UNK A   1      28.357  31.062   1.305  1.00  0.00    +0.026 H
ATOM     35  H   UNK A   1      27.134  30.319   0.273  1.00  0.00    +0.026 H
ATOM     36  H   UNK A   1      30.437  29.829   2.745  1.00  0.00    +0.065 H
ATOM     37  H   UNK A   1      28.605  32.592   6.426  1.00  0.00    +0.064 H
ATOM     38  H   UNK A   1      27.228  30.844   5.440  1.00  0.00    +0.065 H
ATOM     39  H   UNK A   1      23.676  27.750   2.109  1.00  0.00    +0.068 H
ATOM     40  H   UNK A   1      24.419  23.896   5.128  1.00  0.00    +0.063 H
ATOM     41  H   UNK A   1      26.233  25.465   4.754  1.00  0.00    +0.065 H
ATOM     42  H   UNK A   1      20.617  24.842   2.807  1.00  0.00    +0.163 H
ATOM     43  H   UNK A   1      19.624  22.718   4.603  1.00  0.00    +0.045 H
ATOM     44  H   UNK A   1      18.726  23.597   3.329  1.00  0.00    +0.045 H
ATOM     45  H   UNK A   1      19.871  22.297   2.886  1.00  0.00    +0.045 H
ATOM     46  H   UNK A   1      29.670  28.786   1.105  1.00  0.00    +0.026 H
ATOM     47  H   UNK A   1      28.373  27.968   0.252  1.00  0.00    +0.026 H
ATOM     48  H   UNK A   1      28.953  27.321   1.789  1.00  0.00    +0.026 H
ENDMDL

MODEL 5
REMARK VINA RESULT:      -8.07        5.760        6.310
ATOM      1  C   UNK A   1      29.381  27.523   3.143  1.00  0.00    -0.032 C
ATOM      2  C   UNK A   1      28.026  27.743   3.820  1.00  0.00    +0.121 C
ATOM      3  C   UNK A   1      27.694  29.239   3.790  1.00  0.00    +0.259 C
ATOM      4  O   UNK A   1      27.757  29.914   2.767  1.00  0.00    -0.271 OA
ATOM      5  N   UNK A   1      27.228  29.628   5.030  1.00  0.00    -0.255 NA
ATOM      6  C   UNK A   1      27.434  28.607   5.961  1.00  0.00    +0.188 C
ATOM      7  S   UNK A   1      27.102  28.635   7.608  1.00  0.00    -0.039 S
ATOM      8  N   UNK A   1      28.009  27.503   5.264  1.00  0.00    -0.304 NA
ATOM      9  C   UNK A   1      28.708  26.406   5.847  1.00  0.00    +0.045 A
ATOM     10  C   UNK A   1      28.541  25.104   5.362  1.00  0.00    -0.025 A
ATOM     11  C   UNK A   1      29.247  24.011   5.910  1.00  0.00    +0.075 A
ATOM     12  C   UNK A   1      30.147  24.238   6.963  1.00  0.00    +0.064 A
ATOM     13  C   UNK A   1      30.330  25.537   7.444  1.00  0.00    -0.042 A
ATOM     14  C   UNK A   1      29.621  26.607   6.888  1.00  0.00    -0.037 A
ATOM     15  C   UNK A   1      30.896  23.167   7.562  1.00  0.00    +0.100 C
ATOM     16  N   UNK A   1      31.506  22.307   8.043  1.00  0.00    -0.192 NA
ATOM     17  C   UNK A   1      29.024  22.619   5.368  1.00  0.00    +0.417 C
ATOM     18  F   UNK A   1      30.162  22.067   4.872  1.00  0.00    -0.166 F
ATOM     19  F   UNK A   1      28.551  21.761   6.309  1.00  0.00    -0.166 F
ATOM     20  F   UNK A   1      28.122  22.582   4.347  1.00  0.00    -0.166 F
ATOM     21  C   UNK A   1      26.682  30.929   5.258  1.00  0.00    +0.054 A
ATOM     22  C   UNK A   1      27.209  32.052   4.602  1.00  0.00    -0.001 A
ATOM     23  C   UNK A   1      26.673  33.327   4.805  1.00  0.00    +0.138 A
ATOM     24  C   UNK A   1      25.589  33.528   5.654  1.00  0.00    +0.075 A
ATOM     25  C   UNK A   1      25.040  32.413   6.298  1.00  0.00    -0.044 A
ATOM     26  C   UNK A   1      25.578  31.132   6.098  1.00  0.00    -0.037 A
ATOM     27  C   UNK A   1      24.976  34.863   5.903  1.00  0.00    +0.253 C
ATOM     28  O   UNK A   1      23.985  34.953   6.621  1.00  0.00    -0.269 OA
ATOM     29  N   UNK A   1      25.561  35.955   5.299  1.00  0.00    -0.355 NA
ATOM     30  C   UNK A   1      24.989  37.272   5.413  1.00  0.00    +0.006 C
ATOM     31  F   UNK A   1      27.241  34.353   4.152  1.00  0.00    -0.206 F
ATOM     32  C   UNK A   1      26.887  27.033   3.078  1.00  0.00    -0.032 C
ATOM     33  H   UNK A   1      30.174  28.081   3.655  1.00  0.00    +0.026 H
ATOM     34  H   UNK A   1      29.667  26.467   3.133  1.00  0.00    +0.026 H
ATOM     35  H   UNK A   1      29.364  27.866   2.101  1.00  0.00    +0.026 H
ATOM     36  H   UNK A   1      27.823  24.903   4.573  1.00  0.00    +0.065 H
ATOM     37  H   UNK A   1      31.032  25.734   8.254  1.00  0.00    +0.064 H
ATOM     38  H   UNK A   1      29.829  27.605   7.268  1.00  0.00    +0.065 H
ATOM     39  H   UNK A   1      28.065  31.973   3.937  1.00  0.00    +0.068 H
ATOM     40  H   UNK A   1      24.179  32.529   6.956  1.00  0.00    +0.063 H
ATOM     41  H   UNK A   1      25.070  30.302   6.582  1.00  0.00    +0.065 H
ATOM     42  H   UNK A   1      26.315  35.814   4.635  1.00  0.00    +0.163 H
ATOM     43  H   UNK A   1      24.631  37.446   6.431  1.00  0.00    +0.045 H
ATOM     44  H   UNK A   1      25.755  38.008   5.157  1.00  0.00    +0.045 H
ATOM     45  H   UNK A   1      24.153  37.350   4.714  1.00  0.00    +0.045 H
ATOM     46  H   UNK A   1      27.087  25.969   2.933  1.00  0.00    +0.026 H
ATOM     47  H   UNK A   1      26.737  27.462   2.080  1.00  0.00    +0.026 H
ATOM     48  H   UNK A   1      25.936  27.125   3.617  1.00  0.00    +0.026 H
ENDMDL

MODEL 6
REMARK VINA RESULT:      -7.62        6.780        7.760
ATOM      1  C   UNK A   1      24.547  25.506   2.392  1.00  0.00    -0.032 C
ATOM      2  C   UNK A   1      24.936  26.822   3.069  1.00  0.00    +0.121 C
ATOM      3  C   UNK A   1      26.462  26.961   3.039  1.00  0.00    +0.259 C
ATOM      4  O   UNK A   1      27.124  26.814   2.016  1.00  0.00    -0.271 OA
ATOM      5  N   UNK A   1      26.907  27.374   4.279  1.00  0.00    -0.255 NA
ATOM      6  C   UNK A   1      25.868  27.300   5.210  1.00  0.00    +0.188 C
ATOM      7  S   UNK A   1      25.937  27.625   6.857  1.00  0.00    -0.039 S
ATOM      8  N   UNK A   1      24.700  26.870   4.513  1.00  0.00    -0.304 NA
ATOM      9  C   UNK A   1      23.523  26.315   5.096  1.00  0.00    +0.045 A
ATOM     10  C   UNK A   1      22.253  26.646   4.611  1.00  0.00    -0.025 A
ATOM     11  C   UNK A   1      21.079  26.084   5.159  1.00  0.00    +0.075 A
ATOM     12  C   UNK A   1      21.190  25.162   6.212  1.00  0.00    +0.064 A
ATOM     13  C   UNK A   1      22.456  24.816   6.693  1.00  0.00    -0.042 A
ATOM     14  C   UNK A   1      23.607  25.384   6.137  1.00  0.00    -0.037 A
ATOM     15  C   UNK A   1      20.033  24.555   6.811  1.00  0.00    +0.100 C
ATOM     16  N   UNK A   1      19.103  24.059   7.292  1.00  0.00    -0.192 NA
ATOM     17  C   UNK A   1      19.727  26.481   4.617  1.00  0.00    +0.417 C
ATOM     18  F   UNK A   1      19.035  25.422   4.121  1.00  0.00    -0.166 F
ATOM     19  F   UNK A   1      18.936  27.059   5.558  1.00  0.00    -0.166 F
ATOM     20  F   UNK A   1      19.804  27.381   3.596  1.00  0.00    -0.166 F
ATOM     21  C   UNK A   1      28.267  27.752   4.507  1.00  0.00    +0.054 A
ATOM     22  C   UNK A   1      29.313  27.087   3.851  1.00  0.00    -0.001 A
ATOM     23  C   UNK A   1      30.646  27.456   4.054  1.00  0.00    +0.138 A
ATOM     24  C   UNK A   1      30.983  28.507   4.903  1.00  0.00    +0.075 A
ATOM     25  C   UNK A   1      29.947  29.192   5.547  1.00  0.00    -0.044 A
ATOM     26  C   UNK A   1      28.608  28.821   5.347  1.00  0.00    -0.037 A
ATOM     27  C   UNK A   1      32.386  28.945   5.152  1.00  0.00    +0.253 C
ATOM     28  O   UNK A   1      32.600  29.916   5.870  1.00  0.00    -0.269 OA
ATOM     29  N   UNK A   1      33.394  28.226   4.548  1.00  0.00    -0.355 NA
ATOM     30  C   UNK A   1      34.773  28.627   4.662  1.00  0.00    +0.006 C
ATOM     31  F   UNK A   1      31.592  26.763   3.401  1.00  0.00    -0.206 F
ATOM     32  C   UNK A   1      24.376  28.042   2.327  1.00  0.00    -0.032 C
ATOM     33  H   UNK A   1      24.999  24.649   2.904  1.00  0.00    +0.026 H
ATOM     34  H   UNK A   1      23.462  25.356   2.382  1.00  0.00    +0.026 H
ATOM     35  H   UNK A   1      24.888  25.480   1.350  1.00  0.00    +0.026 H
ATOM     36  H   UNK A   1      22.145  27.384   3.822  1.00  0.00    +0.065 H
ATOM     37  H   UNK A   1      22.562  24.095   7.503  1.00  0.00    +0.064 H
ATOM     38  H   UNK A   1      24.571  25.051   6.517  1.00  0.00    +0.065 H
ATOM     39  H   UNK A   1      29.127  26.247   3.186  1.00  0.00    +0.068 H
ATOM     40  H   UNK A   1      30.171  30.031   6.205  1.00  0.00    +0.063 H
ATOM     41  H   UNK A   1      27.849  29.430   5.831  1.00  0.00    +0.065 H
ATOM     42  H   UNK A   1      33.159  27.497   3.884  1.00  0.00    +0.163 H
ATOM     43  H   UNK A   1      34.991  28.960   5.680  1.00  0.00    +0.045 H
ATOM     44  H   UNK A   1      35.406  27.774   4.406  1.00  0.00    +0.045 H
ATOM     45  H   UNK A   1      34.957  29.446   3.963  1.00  0.00    +0.045 H
ATOM     46  H   UNK A   1      23.295  27.978   2.182  1.00  0.00    +0.026 H
ATOM     47  H   UNK A   1      24.821  28.136   1.329  1.00  0.00    +0.026 H
ATOM     48  H   UNK A   1      24.588  28.973   2.866  1.00  0.00    +0.026 H
ENDMDL

MODEL 7
REMARK VINA RESULT:      -7.19        9.610       10.290
ATOM      1  C   UNK A   1      28.572  29.270   2.451  1.00  0.00    -0.032 C
ATOM      2  C   UNK A   1      28.285  27.928   3.128  1.00  0.00    +0.121 C
ATOM      3  C   UNK A   1      26.775  27.671   3.098  1.00  0.00    +0.259 C
ATOM      4  O   UNK A   1      26.103  27.767   2.075  1.00  0.00    -0.271 OA
ATOM      5  N   UNK A   1      26.363  27.225   4.338  1.00  0.00    -0.255 NA
ATOM      6  C   UNK A   1      27.393  27.380   5.269  1.00  0.00    +0.188 C
ATOM      7  S   UNK A   1      27.349  27.050   6.916  1.00  0.00    -0.039 S
ATOM      8  N   UNK A   1      28.524  27.899   4.572  1.00  0.00    -0.304 NA
ATOM      9  C   UNK A   1      29.655  28.542   5.155  1.00  0.00    +0.045 A
ATOM     10  C   UNK A   1      30.947  28.311   4.670  1.00  0.00    -0.025 A
ATOM     11  C   UNK A   1      32.074  28.962   5.218  1.00  0.00    +0.075 A
ATOM     12  C   UNK A   1      31.891  29.872   6.271  1.00  0.00    +0.064 A
ATOM     13  C   UNK A   1      30.603  30.120   6.752  1.00  0.00    -0.042 A
ATOM     14  C   UNK A   1      29.499  29.465   6.196  1.00  0.00    -0.037 A
ATOM     15  C   UNK A   1      32.998  30.567   6.870  1.00  0.00    +0.100 C
ATOM     16  N   UNK A   1      33.887  31.134   7.351  1.00  0.00    -0.192 NA
ATOM     17  C   UNK A   1      33.452  28.670   4.676  1.00  0.00    +0.417 C
ATOM     18  F   UNK A   1      34.060  29.780   4.180  1.00  0.00    -0.166 F
ATOM     19  F   UNK A   1      34.286  28.156   5.617  1.00  0.00    -0.166 F
ATOM     20  F   UNK A   1      33.445  27.768   3.655  1.00  0.00    -0.166 F
ATOM     21  C   UNK A   1      25.037  26.744   4.566  1.00  0.00    +0.054 A
ATOM     22  C   UNK A   1      23.941  27.326   3.910  1.00  0.00    -0.001 A
ATOM     23  C   UNK A   1      22.641  26.854   4.113  1.00  0.00    +0.138 A
ATOM     24  C   UNK A   1      22.387  25.781   4.962  1.00  0.00    +0.075 A
ATOM     25  C   UNK A   1      23.473  25.177   5.606  1.00  0.00    -0.044 A
ATOM     26  C   UNK A   1      24.778  25.651   5.406  1.00  0.00    -0.037 A
ATOM     27  C   UNK A   1      21.022  25.236   5.211  1.00  0.00    +0.253 C
ATOM     28  O   UNK A   1      20.883  24.250   5.929  1.00  0.00    -0.269 OA
ATOM     29  N   UNK A   1      19.961  25.874   4.607  1.00  0.00    -0.355 NA
ATOM     30  C   UNK A   1      18.617  25.368   4.721  1.00  0.00    +0.006 C
ATOM     31  F   UNK A   1      21.645  27.472   3.460  1.00  0.00    -0.206 F
ATOM     32  C   UNK A   1      28.938  26.755   2.386  1.00  0.00    -0.032 C
ATOM     33  H   UNK A   1      28.055  30.090   2.963  1.00  0.00    +0.026 H
ATOM     34  H   UNK A   1      29.641  29.504   2.441  1.00  0.00    +0.026 H
ATOM     35  H   UNK A   1      28.229  29.270   1.409  1.00  0.00    +0.026 H
ATOM     36  H   UNK A   1      31.111  27.584   3.881  1.00  0.00    +0.065 H
ATOM     37  H   UNK A   1      30.441  30.831   7.562  1.00  0.00    +0.064 H
ATOM     38  H   UNK A   1      28.512  29.722   6.576  1.00  0.00    +0.065 H
ATOM     39  H   UNK A   1      24.062  28.177   3.245  1.00  0.00    +0.068 H
ATOM     40  H   UNK A   1      23.314  24.324   6.264  1.00  0.00    +0.063 H
ATOM     41  H   UNK A   1      25.583  25.102   5.890  1.00  0.00    +0.065 H
ATOM     42  H   UNK A   1      20.139  26.619   3.943  1.00  0.00    +0.163 H
ATOM     43  H   UNK A   1      18.426  25.018   5.739  1.00  0.00    +0.045 H
ATOM     44  H   UNK A   1      17.920  26.169   4.465  1.00  0.00    +0.045 H
ATOM     45  H   UNK A   1      18.497  24.536   4.022  1.00  0.00    +0.045 H
ATOM     46  H   UNK A   1      30.010  26.902   2.241  1.00  0.00    +0.026 H
ATOM     47  H   UNK A   1      28.501  26.627   1.388  1.00  0.00    +0.026 H
ATOM     48  H   UNK A   1      28.798  25.810   2.925  1.00  0.00    +0.026 H
ENDMDL

MODEL 8
REMARK VINA RESULT:      -6.58        9.240       10.420
ATOM      1  C   UNK A   1      28.211  31.220   3.351  1.00  0.00    -0.032 C
ATOM      2  C   UNK A   1      28.363  29.856   4.028  1.00  0.00    +0.121 C
ATOM      3  C   UNK A   1      27.012  29.135   3.998  1.00  0.00    +0.259 C
ATOM      4  O   UNK A   1      26.345  29.014   2.975  1.00  0.00    -0.271 OA
ATOM      5  N   UNK A   1      26.762  28.581   5.238  1.00  0.00    -0.255 NA
ATOM      6  C   UNK A   1      27.691  29.054   6.169  1.00  0.00    +0.188 C
ATOM      7  S   UNK A   1      27.753  28.727   7.816  1.00  0.00    -0.039 S
ATOM      8  N   UNK A   1      28.600  29.904   5.472  1.00  0.00    -0.304 NA
ATOM      9  C   UNK A   1      29.469  30.872   6.055  1.00  0.00    +0.045 A
ATOM     10  C   UNK A   1      30.768  31.061   5.570  1.00  0.00    -0.025 A
ATOM     11  C   UNK A   1      31.631  32.035   6.118  1.00  0.00    +0.075 A
ATOM     12  C   UNK A   1      31.171  32.841   7.171  1.00  0.00    +0.064 A
ATOM     13  C   UNK A   1      29.869  32.669   7.652  1.00  0.00    -0.042 A
ATOM     14  C   UNK A   1      29.030  31.698   7.096  1.00  0.00    -0.037 A
ATOM     15  C   UNK A   1      32.000  33.850   7.770  1.00  0.00    +0.100 C
ATOM     16  N   UNK A   1      32.665  34.668   8.251  1.00  0.00    -0.192 NA
ATOM     17  C   UNK A   1      33.031  32.194   5.576  1.00  0.00    +0.417 C
ATOM     18  F   UNK A   1      33.257  33.439   5.080  1.00  0.00    -0.166 F
ATOM     19  F   UNK A   1      33.985  31.969   6.517  1.00  0.00    -0.166 F
ATOM     20  F   UNK A   1      33.309  31.335   4.555  1.00  0.00    -0.166 F
ATOM     21  C   UNK A   1      25.656  27.706   5.466  1.00  0.00    +0.054 A
ATOM     22  C   UNK A   1      24.433  27.912   4.810  1.00  0.00    -0.001 A
ATOM     23  C   UNK A   1      23.349  27.053   5.013  1.00  0.00    +0.138 A
ATOM     24  C   UNK A   1      23.447  25.955   5.862  1.00  0.00    +0.075 A
ATOM     25  C   UNK A   1      24.668  25.725   6.506  1.00  0.00    -0.044 A
ATOM     26  C   UNK A   1      25.757  26.588   6.306  1.00  0.00    -0.037 A
ATOM     27  C   UNK A   1      22.324  25.006   6.111  1.00  0.00    +0.253 C
ATOM     28  O   UNK A   1      22.504  24.027   6.829  1.00  0.00    -0.269 OA
ATOM     29  N   UNK A   1      21.116  25.276   5.507  1.00  0.00    -0.355 NA
ATOM     30  C   UNK A   1      20.001  24.371   5.621  1.00  0.00    +0.006 C
ATOM     31  F   UNK A   1      22.208  27.325   4.360  1.00  0.00    -0.206 F
ATOM     32  C   UNK A   1      29.354  28.949   3.286  1.00  0.00    -0.032 C
ATOM     33  H   UNK A   1      27.462  31.834   3.863  1.00  0.00    +0.026 H
ATOM     34  H   UNK A   1      29.152  31.780   3.341  1.00  0.00    +0.026 H
ATOM     35  H   UNK A   1      27.886  31.112   2.309  1.00  0.00    +0.026 H
ATOM     36  H   UNK A   1      31.154  30.423   4.781  1.00  0.00    +0.065 H
ATOM     37  H   UNK A   1      29.492  33.292   8.462  1.00  0.00    +0.064 H
ATOM     38  H   UNK A   1      28.012  31.630   7.476  1.00  0.00    +0.065 H
ATOM     39  H   UNK A   1      24.279  28.757   4.145  1.00  0.00    +0.068 H
ATOM     40  H   UNK A   1      24.787  24.865   7.164  1.00  0.00    +0.063 H
ATOM     41  H   UNK A   1      26.693  26.321   6.790  1.00  0.00    +0.065 H
ATOM     42  H   UNK A   1      21.049  26.040   4.843  1.00  0.00    +0.163 H
ATOM     43  H   UNK A   1      19.930  23.979   6.639  1.00  0.00    +0.045 H
ATOM     44  H   UNK A   1      19.086  24.911   5.365  1.00  0.00    +0.045 H
ATOM     45  H   UNK A   1      20.150  23.544   4.922  1.00  0.00    +0.045 H
ATOM     46  H   UNK A   1      30.325  29.428   3.141  1.00  0.00    +0.026 H
ATOM     47  H   UNK A   1      28.980  28.690   2.288  1.00  0.00    +0.026 H
ATOM     48  H   UNK A   1      29.520  28.009   3.825  1.00  0.00    +0.026 H
ENDMDL

MODEL 9
REMARK VINA RESULT:      -6.18       12.390       12.950
ATOM      1  C   UNK A   1      28.131  26.441   1.984  1.00  0.00    -0.032 C
ATOM      2  C   UNK A   1      26.850  25.948   2.661  1.00  0.00    +0.121 C
ATOM      3  C   UNK A   1      25.810  27.072   2.631  1.00  0.00    +0.259 C
ATOM      4  O   UNK A   1      25.524  27.687   1.608  1.00  0.00    -0.271 OA
ATOM      5  N   UNK A   1      25.212  27.173   3.871  1.00  0.00    -0.255 NA
ATOM      6  C   UNK A   1      25.904  26.395   4.802  1.00  0.00    +0.188 C
ATOM      7  S   UNK A   1      25.603  26.252   6.449  1.00  0.00    -0.039 S
ATOM      8  N   UNK A   1      26.957  25.731   4.105  1.00  0.00    -0.304 NA
ATOM      9  C   UNK A   1      28.113  25.136   4.688  1.00  0.00    +0.045 A
ATOM     10  C   UNK A   1      28.625  23.927   4.203  1.00  0.00    -0.025 A
ATOM     11  C   UNK A   1      29.786  23.339   4.751  1.00  0.00    +0.075 A
ATOM     12  C   UNK A   1      30.449  23.989   5.804  1.00  0.00    +0.064 A
ATOM     13  C   UNK A   1      29.953  25.204   6.285  1.00  0.00    -0.042 A
ATOM     14  C   UNK A   1      28.801  25.770   5.729  1.00  0.00    -0.037 A
ATOM     15  C   UNK A   1      31.635  23.442   6.403  1.00  0.00    +0.100 C
ATOM     16  N   UNK A   1      32.596  23.006   6.884  1.00  0.00    -0.192 NA
ATOM     17  C   UNK A   1      30.295  22.025   4.209  1.00  0.00    +0.417 C
ATOM     18  F   UNK A   1      31.556  22.122   3.713  1.00  0.00    -0.166 F
ATOM     19  F   UNK A   1      30.319  21.046   5.150  1.00  0.00    -0.166 F
ATOM     20  F   UNK A   1      29.535  21.538   3.188  1.00  0.00    -0.166 F
ATOM     21  C   UNK A   1      24.084  28.022   4.099  1.00  0.00    +0.054 A
ATOM     22  C   UNK A   1      23.973  29.257   3.443  1.00  0.00    -0.001 A
ATOM     23  C   UNK A   1      22.868  30.089   3.646  1.00  0.00    +0.138 A
ATOM     24  C   UNK A   1      21.830  29.715   4.495  1.00  0.00    +0.075 A
ATOM     25  C   UNK A   1      21.918  28.476   5.139  1.00  0.00    -0.044 A
ATOM     26  C   UNK A   1      23.028  27.641   4.939  1.00  0.00    -0.037 A
ATOM     27  C   UNK A   1      20.628  30.561   4.744  1.00  0.00    +0.253 C
ATOM     28  O   UNK A   1      19.727  30.139   5.462  1.00  0.00    -0.269 OA
ATOM     29  N   UNK A   1      20.583  31.798   4.140  1.00  0.00    -0.355 NA
ATOM     30  C   UNK A   1      19.425  32.647   4.254  1.00  0.00    +0.006 C
ATOM     31  F   UNK A   1      22.842  31.261   2.993  1.00  0.00    -0.206 F
ATOM     32  C   UNK A   1      26.224  24.760   1.919  1.00  0.00    -0.032 C
ATOM     33  H   UNK A   1      28.535  27.321   2.496  1.00  0.00    +0.026 H
ATOM     34  H   UNK A   1      28.911  25.672   1.974  1.00  0.00    +0.026 H
ATOM     35  H   UNK A   1      27.944  26.728   0.942  1.00  0.00    +0.026 H
ATOM     36  H   UNK A   1      28.106  23.392   3.414  1.00  0.00    +0.065 H
ATOM     37  H   UNK A   1      30.460  25.727   7.095  1.00  0.00    +0.064 H
ATOM     38  H   UNK A   1      28.478  26.737   6.109  1.00  0.00    +0.065 H
ATOM     39  H   UNK A   1      24.752  29.621   2.778  1.00  0.00    +0.068 H
ATOM     40  H   UNK A   1      21.116  28.143   5.797  1.00  0.00    +0.063 H
ATOM     41  H   UNK A   1      23.008  26.668   5.423  1.00  0.00    +0.065 H
ATOM     42  H   UNK A   1      21.305  32.056   3.476  1.00  0.00    +0.163 H
ATOM     43  H   UNK A   1      19.028  32.617   5.272  1.00  0.00    +0.045 H
ATOM     44  H   UNK A   1      19.716  33.669   3.998  1.00  0.00    +0.045 H
ATOM     45  H   UNK A   1      18.663  32.294   3.555  1.00  0.00    +0.045 H
ATOM     46  H   UNK A   1      26.934  23.942   1.774  1.00  0.00    +0.026 H
ATOM     47  H   UNK A   1      25.879  25.056   0.921  1.00  0.00    +0.026 H
ATOM     48  H   UNK A   1      25.357  24.361   2.458  1.00  0.00    +0.026 H
ENDMDL
