MODEL 1
REMARK VINA RESULT:     -10.43        0.000        0.000
ATOM      1  C   UNK A   1      28.581  24.657   4.130  1.00  0.00    -0.057 C
ATOM      2  C   UNK A   1      28.140  24.629   5.612  1.00  0.00    -0.003 C
ATOM      3  C   UNK A   1      26.630  24.361   5.681  1.00  0.00    -0.045 C
ATOM      4  C   UNK A   1      25.813  25.577   5.203  1.00  0.00    -0.049 C
ATOM      5  C   UNK A   1      26.142  26.878   5.985  1.00  0.00    -0.029 C
ATOM      6  C   UNK A   1      27.678  27.171   6.011  1.00  0.00    -0.034 C
ATOM      7  C   UNK A   1      28.430  25.902   6.438  1.00  0.00    -0.030 C
ATOM      8  C   UNK A   1      29.949  25.930   6.559  1.00  0.00    -0.047 C
ATOM      9  C   UNK A   1      30.341  24.441   6.649  1.00  0.00    -0.026 C
ATOM     10  C   UNK A   1      29.065  23.626   6.344  1.00  0.00    +0.060 C
ATOM     11  O   UNK A   1      28.512  23.193   7.583  1.00  0.00    -0.393 OA
ATOM     12  C   UNK A   1      28.226  27.866   4.748  1.00  0.00    -0.046 C
ATOM     13  C   UNK A   1      27.150  28.483   3.859  1.00  0.00    -0.031 C
ATOM     14  C   UNK A   1      26.100  29.119   4.720  1.00  0.00    -0.060 C
ATOM     15  C   UNK A   1      25.958  30.455   4.760  1.00  0.00    -0.019 C
ATOM     16  C   UNK A   1      24.994  31.108   5.677  1.00  0.00    +0.155 C
ATOM     17  O   UNK A   1      24.813  32.321   5.593  1.00  0.00    -0.295 OA
ATOM     18  C   UNK A   1      24.239  30.254   6.667  1.00  0.00    +0.011 C
ATOM     19  C   UNK A   1      24.923  28.911   6.903  1.00  0.00    -0.037 C
ATOM     20  C   UNK A   1      25.294  28.159   5.591  1.00  0.00    -0.008 C
ATOM     21  C   UNK A   1      23.995  27.794   4.839  1.00  0.00    -0.056 C
ATOM     22  H   UNK A   1      28.460  23.663   3.682  1.00  0.00    +0.024 H
ATOM     23  H   UNK A   1      27.988  25.342   3.520  1.00  0.00    +0.024 H
ATOM     24  H   UNK A   1      29.632  24.934   4.006  1.00  0.00    +0.024 H
ATOM     25  H   UNK A   1      26.368  23.482   5.080  1.00  0.00    +0.027 H
ATOM     26  H   UNK A   1      26.323  24.134   6.709  1.00  0.00    +0.027 H
ATOM     27  H   UNK A   1      24.755  25.322   5.343  1.00  0.00    +0.027 H
ATOM     28  H   UNK A   1      25.954  25.725   4.129  1.00  0.00    +0.027 H
ATOM     29  H   UNK A   1      25.866  26.632   7.023  1.00  0.00    +0.031 H
ATOM     30  H   UNK A   1      27.833  27.895   6.826  1.00  0.00    +0.031 H
ATOM     31  H   UNK A   1      28.066  25.711   7.463  1.00  0.00    +0.031 H
ATOM     32  H   UNK A   1      30.273  26.482   7.448  1.00  0.00    +0.027 H
ATOM     33  H   UNK A   1      30.428  26.395   5.692  1.00  0.00    +0.027 H
ATOM     34  H   UNK A   1      30.749  24.207   7.638  1.00  0.00    +0.029 H
ATOM     35  H   UNK A   1      31.119  24.232   5.905  1.00  0.00    +0.029 H
ATOM     36  H   UNK A   1      29.298  22.734   5.754  1.00  0.00    +0.061 H
ATOM     37  H   UNK A   1      27.803  22.559   7.379  1.00  0.00    +0.210 H
ATOM     38  H   UNK A   1      28.853  27.215   4.138  1.00  0.00    +0.027 H
ATOM     39  H   UNK A   1      28.907  28.665   5.078  1.00  0.00    +0.027 H
ATOM     40  H   UNK A   1      27.614  29.208   3.179  1.00  0.00    +0.031 H
ATOM     41  H   UNK A   1      26.693  27.721   3.218  1.00  0.00    +0.031 H
ATOM     42  H   UNK A   1      26.546  31.128   4.146  1.00  0.00    +0.066 H
ATOM     43  H   UNK A   1      23.217  30.121   6.300  1.00  0.00    +0.035 H
ATOM     44  H   UNK A   1      24.187  30.798   7.618  1.00  0.00    +0.035 H
ATOM     45  H   UNK A   1      25.833  29.088   7.493  1.00  0.00    +0.028 H
ATOM     46  H   UNK A   1      24.270  28.286   7.526  1.00  0.00    +0.028 H
ATOM     47  H   UNK A   1      24.200  27.261   3.903  1.00  0.00    +0.024 H
ATOM     48  H   UNK A   1      23.414  28.679   4.557  1.00  0.00    +0.024 H
ATOM     49  H   UNK A   1      23.345  27.164   5.457  1.00  0.00    +0.024 H
ENDMDL

MODEL 2
REMARK VINA RESULT:      -9.86        2.330        2.960
ATOM      1  C   UNK A   1      23.174  28.382   3.062  1.00  0.00    -0.057 C
ATOM      2  C   UNK A   1      23.515  28.663   4.544  1.00  0.00    -0.003 C
ATOM      3  C   UNK A   1      24.583  29.764   4.613  1.00  0.00    -0.045 C
ATOM      4  C   UNK A   1      25.958  29.256   4.135  1.00  0.00    -0.049 C
ATOM      5  C   UNK A   1      26.452  28.009   4.917  1.00  0.00    -0.029 C
ATOM      6  C   UNK A   1      25.378  26.872   4.943  1.00  0.00    -0.034 C
ATOM      7  C   UNK A   1      24.026  27.461   5.370  1.00  0.00    -0.030 C
ATOM      8  C   UNK A   1      22.811  26.550   5.491  1.00  0.00    -0.047 C
ATOM      9  C   UNK A   1      21.621  27.527   5.581  1.00  0.00    -0.026 C
ATOM     10  C   UNK A   1      22.179  28.934   5.276  1.00  0.00    +0.060 C
ATOM     11  O   UNK A   1      22.373  29.610   6.515  1.00  0.00    -0.393 OA
ATOM     12  C   UNK A   1      25.341  25.988   3.680  1.00  0.00    -0.046 C
ATOM     13  C   UNK A   1      26.574  26.117   2.791  1.00  0.00    -0.031 C
ATOM     14  C   UNK A   1      27.798  26.217   3.652  1.00  0.00    -0.060 C
ATOM     15  C   UNK A   1      28.695  25.217   3.692  1.00  0.00    -0.019 C
ATOM     16  C   UNK A   1      29.859  25.251   4.609  1.00  0.00    +0.155 C
ATOM     17  O   UNK A   1      30.715  24.373   4.525  1.00  0.00    -0.295 OA
ATOM     18  C   UNK A   1      29.971  26.385   5.599  1.00  0.00    +0.011 C
ATOM     19  C   UNK A   1      28.630  27.074   5.835  1.00  0.00    -0.037 C
ATOM     20  C   UNK A   1      27.889  27.466   4.523  1.00  0.00    -0.008 C
ATOM     21  C   UNK A   1      28.729  28.523   3.771  1.00  0.00    -0.056 C
ATOM     22  H   UNK A   1      22.692  29.259   2.614  1.00  0.00    +0.024 H
ATOM     23  H   UNK A   1      24.056  28.173   2.452  1.00  0.00    +0.024 H
ATOM     24  H   UNK A   1      22.484  27.543   2.938  1.00  0.00    +0.024 H
ATOM     25  H   UNK A   1      24.281  30.630   4.012  1.00  0.00    +0.027 H
ATOM     26  H   UNK A   1      24.700  30.128   5.641  1.00  0.00    +0.027 H
ATOM     27  H   UNK A   1      26.666  30.082   4.275  1.00  0.00    +0.027 H
ATOM     28  H   UNK A   1      25.930  29.054   3.061  1.00  0.00    +0.027 H
ATOM     29  H   UNK A   1      26.531  28.370   5.955  1.00  0.00    +0.031 H
ATOM     30  H   UNK A   1      25.676  26.194   5.758  1.00  0.00    +0.031 H
ATOM     31  H   UNK A   1      24.209  27.829   6.395  1.00  0.00    +0.031 H
ATOM     32  H   UNK A   1      22.871  25.912   6.380  1.00  0.00    +0.027 H
ATOM     33  H   UNK A   1      22.694  25.892   4.624  1.00  0.00    +0.027 H
ATOM     34  H   UNK A   1      21.154  27.478   6.570  1.00  0.00    +0.029 H
ATOM     35  H   UNK A   1      20.868  27.242   4.837  1.00  0.00    +0.029 H
ATOM     36  H   UNK A   1      21.468  29.522   4.686  1.00  0.00    +0.061 H
ATOM     37  H   UNK A   1      22.578  30.538   6.311  1.00  0.00    +0.210 H
ATOM     38  H   UNK A   1      24.451  26.149   3.070  1.00  0.00    +0.027 H
ATOM     39  H   UNK A   1      25.256  24.942   4.010  1.00  0.00    +0.027 H
ATOM     40  H   UNK A   1      26.622  25.258   2.111  1.00  0.00    +0.031 H
ATOM     41  H   UNK A   1      26.499  27.003   2.150  1.00  0.00    +0.031 H
ATOM     42  H   UNK A   1      28.612  24.326   3.078  1.00  0.00    +0.066 H
ATOM     43  H   UNK A   1      30.721  27.091   5.232  1.00  0.00    +0.035 H
ATOM     44  H   UNK A   1      30.331  25.974   6.550  1.00  0.00    +0.035 H
ATOM     45  H   UNK A   1      27.997  26.397   6.425  1.00  0.00    +0.028 H
ATOM     46  H   UNK A   1      28.794  27.962   6.458  1.00  0.00    +0.028 H
ATOM     47  H   UNK A   1      28.251  28.834   2.835  1.00  0.00    +0.024 H
ATOM     48  H   UNK A   1      29.718  28.145   3.489  1.00  0.00    +0.024 H
ATOM     49  H   UNK A   1      28.888  29.414   4.389  1.00  0.00    +0.024 H
ENDMDL

MODEL 3
REMARK VINA RESULT:      -9.45        3.560        4.490
ATOM      1  C   UNK A   1      22.970  27.956   2.681  1.00  0.00    -0.057 C
ATOM      2  C   UNK A   1      23.265  28.285   4.163  1.00  0.00    -0.003 C
ATOM      3  C   UNK A   1      24.154  29.535   4.232  1.00  0.00    -0.045 C
ATOM      4  C   UNK A   1      25.589  29.240   3.754  1.00  0.00    -0.049 C
ATOM      5  C   UNK A   1      26.266  28.082   4.536  1.00  0.00    -0.029 C
ATOM      6  C   UNK A   1      25.376  26.796   4.562  1.00  0.00    -0.034 C
ATOM      7  C   UNK A   1      23.951  27.174   4.989  1.00  0.00    -0.030 C
ATOM      8  C   UNK A   1      22.887  26.090   5.110  1.00  0.00    -0.047 C
ATOM      9  C   UNK A   1      21.563  26.876   5.200  1.00  0.00    -0.026 C
ATOM     10  C   UNK A   1      21.902  28.352   4.895  1.00  0.00    +0.060 C
ATOM     11  O   UNK A   1      21.993  29.048   6.134  1.00  0.00    -0.393 OA
ATOM     12  C   UNK A   1      25.473  25.916   3.299  1.00  0.00    -0.046 C
ATOM     13  C   UNK A   1      26.673  26.230   2.410  1.00  0.00    -0.031 C
ATOM     14  C   UNK A   1      27.867  26.513   3.271  1.00  0.00    -0.060 C
ATOM     15  C   UNK A   1      28.905  25.660   3.311  1.00  0.00    -0.019 C
ATOM     16  C   UNK A   1      30.050  25.870   4.228  1.00  0.00    +0.155 C
ATOM     17  O   UNK A   1      31.029  25.131   4.144  1.00  0.00    -0.295 OA
ATOM     18  C   UNK A   1      29.990  27.007   5.218  1.00  0.00    +0.011 C
ATOM     19  C   UNK A   1      28.560  27.486   5.454  1.00  0.00    -0.037 C
ATOM     20  C   UNK A   1      27.769  27.762   4.142  1.00  0.00    -0.008 C
ATOM     21  C   UNK A   1      28.439  28.934   3.390  1.00  0.00    -0.056 C
ATOM     22  H   UNK A   1      22.360  28.750   2.233  1.00  0.00    +0.024 H
ATOM     23  H   UNK A   1      23.873  27.883   2.071  1.00  0.00    +0.024 H
ATOM     24  H   UNK A   1      22.414  27.022   2.557  1.00  0.00    +0.024 H
ATOM     25  H   UNK A   1      23.725  30.345   3.631  1.00  0.00    +0.027 H
ATOM     26  H   UNK A   1      24.214  29.912   5.260  1.00  0.00    +0.027 H
ATOM     27  H   UNK A   1      26.164  30.164   3.894  1.00  0.00    +0.027 H
ATOM     28  H   UNK A   1      25.592  29.036   2.680  1.00  0.00    +0.027 H
ATOM     29  H   UNK A   1      26.290  28.450   5.574  1.00  0.00    +0.031 H
ATOM     30  H   UNK A   1      25.773  26.171   5.377  1.00  0.00    +0.031 H
ATOM     31  H   UNK A   1      24.076  27.565   6.014  1.00  0.00    +0.031 H
ATOM     32  H   UNK A   1      23.043  25.469   5.999  1.00  0.00    +0.027 H
ATOM     33  H   UNK A   1      22.870  25.422   4.243  1.00  0.00    +0.027 H
ATOM     34  H   UNK A   1      21.109  26.757   6.189  1.00  0.00    +0.029 H
ATOM     35  H   UNK A   1      20.862  26.480   4.456  1.00  0.00    +0.029 H
ATOM     36  H   UNK A   1      21.110  28.825   4.305  1.00  0.00    +0.061 H
ATOM     37  H   UNK A   1      22.055  29.997   5.930  1.00  0.00    +0.210 H
ATOM     38  H   UNK A   1      24.569  25.941   2.689  1.00  0.00    +0.027 H
ATOM     39  H   UNK A   1      25.547  24.869   3.629  1.00  0.00    +0.027 H
ATOM     40  H   UNK A   1      26.850  25.388   1.730  1.00  0.00    +0.031 H
ATOM     41  H   UNK A   1      26.464  27.095   1.769  1.00  0.00    +0.031 H
ATOM     42  H   UNK A   1      28.957  24.767   2.697  1.00  0.00    +0.066 H
ATOM     43  H   UNK A   1      30.625  27.819   4.851  1.00  0.00    +0.035 H
ATOM     44  H   UNK A   1      30.408  26.656   6.169  1.00  0.00    +0.035 H
ATOM     45  H   UNK A   1      28.036  26.722   6.044  1.00  0.00    +0.028 H
ATOM     46  H   UNK A   1      28.589  28.390   6.077  1.00  0.00    +0.028 H
ATOM     47  H   UNK A   1      27.920  29.169   2.454  1.00  0.00    +0.024 H
ATOM     48  H   UNK A   1      29.474  28.709   3.108  1.00  0.00    +0.024 H
ATOM     49  H   UNK A   1      28.462  29.838   4.008  1.00  0.00    +0.024 H
ENDMDL

MODEL 4
REMARK VINA RESULT:      -9.03        5.340        5.980
ATOM      1  C   UNK A   1      24.618  26.315   1.914  1.00  0.00    -0.057 C
ATOM      2  C   UNK A   1      24.521  26.746   3.396  1.00  0.00    -0.003 C
ATOM      3  C   UNK A   1      24.019  28.196   3.465  1.00  0.00    -0.045 C
ATOM      4  C   UNK A   1      25.091  29.194   2.987  1.00  0.00    -0.049 C
ATOM      5  C   UNK A   1      26.427  29.073   3.769  1.00  0.00    -0.029 C
ATOM      6  C   UNK A   1      26.958  27.602   3.795  1.00  0.00    -0.034 C
ATOM      7  C   UNK A   1      25.824  26.660   4.222  1.00  0.00    -0.030 C
ATOM      8  C   UNK A   1      26.089  25.165   4.343  1.00  0.00    -0.047 C
ATOM      9  C   UNK A   1      24.681  24.543   4.433  1.00  0.00    -0.026 C
ATOM     10  C   UNK A   1      23.676  25.675   4.128  1.00  0.00    +0.060 C
ATOM     11  O   UNK A   1      23.161  26.153   5.367  1.00  0.00    -0.393 OA
ATOM     12  C   UNK A   1      27.731  27.170   2.532  1.00  0.00    -0.046 C
ATOM     13  C   UNK A   1      28.172  28.330   1.643  1.00  0.00    -0.031 C
ATOM     14  C   UNK A   1      28.634  29.467   2.504  1.00  0.00    -0.060 C
ATOM     15  C   UNK A   1      29.931  29.817   2.544  1.00  0.00    -0.019 C
ATOM     16  C   UNK A   1      30.425  30.871   3.461  1.00  0.00    +0.155 C
ATOM     17  O   UNK A   1      31.594  31.240   3.377  1.00  0.00    -0.295 OA
ATOM     18  C   UNK A   1      29.463  31.482   4.451  1.00  0.00    +0.011 C
ATOM     19  C   UNK A   1      28.244  30.596   4.687  1.00  0.00    -0.037 C
ATOM     20  C   UNK A   1      27.560  30.111   3.375  1.00  0.00    -0.008 C
ATOM     21  C   UNK A   1      26.995  31.337   2.623  1.00  0.00    -0.056 C
ATOM     22  H   UNK A   1      23.617  26.279   1.466  1.00  0.00    +0.024 H
ATOM     23  H   UNK A   1      25.201  27.008   1.304  1.00  0.00    +0.024 H
ATOM     24  H   UNK A   1      25.056  25.321   1.790  1.00  0.00    +0.024 H
ATOM     25  H   UNK A   1      23.109  28.316   2.864  1.00  0.00    +0.027 H
ATOM     26  H   UNK A   1      23.747  28.463   4.493  1.00  0.00    +0.027 H
ATOM     27  H   UNK A   1      24.673  30.198   3.127  1.00  0.00    +0.027 H
ATOM     28  H   UNK A   1      25.260  29.078   1.913  1.00  0.00    +0.027 H
ATOM     29  H   UNK A   1      26.141  29.306   4.807  1.00  0.00    +0.031 H
ATOM     30  H   UNK A   1      27.698  27.563   4.610  1.00  0.00    +0.031 H
ATOM     31  H   UNK A   1      25.578  26.990   5.247  1.00  0.00    +0.031 H
ATOM     32  H   UNK A   1      26.685  24.931   5.232  1.00  0.00    +0.027 H
ATOM     33  H   UNK A   1      26.624  24.764   3.476  1.00  0.00    +0.027 H
ATOM     34  H   UNK A   1      24.514  24.104   5.422  1.00  0.00    +0.029 H
ATOM     35  H   UNK A   1      24.596  23.742   3.689  1.00  0.00    +0.029 H
ATOM     36  H   UNK A   1      22.830  25.305   3.538  1.00  0.00    +0.061 H
ATOM     37  H   UNK A   1      22.424  26.754   5.163  1.00  0.00    +0.210 H
ATOM     38  H   UNK A   1      27.186  26.449   1.922  1.00  0.00    +0.027 H
ATOM     39  H   UNK A   1      28.627  26.623   2.862  1.00  0.00    +0.027 H
ATOM     40  H   UNK A   1      28.960  27.985   0.963  1.00  0.00    +0.031 H
ATOM     41  H   UNK A   1      27.347  28.662   1.002  1.00  0.00    +0.031 H
ATOM     42  H   UNK A   1      30.689  29.341   1.930  1.00  0.00    +0.066 H
ATOM     43  H   UNK A   1      29.171  32.471   4.084  1.00  0.00    +0.035 H
ATOM     44  H   UNK A   1      29.992  31.619   5.402  1.00  0.00    +0.035 H
ATOM     45  H   UNK A   1      28.562  29.726   5.277  1.00  0.00    +0.028 H
ATOM     46  H   UNK A   1      27.525  31.143   5.310  1.00  0.00    +0.028 H
ATOM     47  H   UNK A   1      26.501  31.051   1.687  1.00  0.00    +0.024 H
ATOM     48  H   UNK A   1      27.778  32.050   2.341  1.00  0.00    +0.024 H
ATOM     49  H   UNK A   1      26.271  31.880   3.241  1.00  0.00    +0.024 H
ENDMDL

MODEL 5
REMARK VINA RESULT:      -8.67        5.760        6.310
ATOM      1  C   UNK A   1      26.401  31.552   3.742  1.00  0.00    -0.057 C
ATOM      2  C   UNK A   1      26.840  31.502   5.224  1.00  0.00    -0.003 C
ATOM      3  C   UNK A   1      28.374  31.504   5.293  1.00  0.00    -0.045 C
ATOM      4  C   UNK A   1      28.967  30.164   4.815  1.00  0.00    -0.049 C
ATOM      5  C   UNK A   1      28.417  28.941   5.597  1.00  0.00    -0.029 C
ATOM      6  C   UNK A   1      26.853  28.919   5.623  1.00  0.00    -0.034 C
ATOM      7  C   UNK A   1      26.333  30.299   6.050  1.00  0.00    -0.030 C
ATOM      8  C   UNK A   1      24.833  30.536   6.171  1.00  0.00    -0.047 C
ATOM      9  C   UNK A   1      24.705  32.070   6.261  1.00  0.00    -0.026 C
ATOM     10  C   UNK A   1      26.104  32.651   5.956  1.00  0.00    +0.060 C
ATOM     11  O   UNK A   1      26.723  32.982   7.195  1.00  0.00    -0.393 OA
ATOM     12  C   UNK A   1      26.193  28.330   4.360  1.00  0.00    -0.046 C
ATOM     13  C   UNK A   1      27.145  27.535   3.471  1.00  0.00    -0.031 C
ATOM     14  C   UNK A   1      28.068  26.726   4.332  1.00  0.00    -0.060 C
ATOM     15  C   UNK A   1      27.976  25.386   4.372  1.00  0.00    -0.019 C
ATOM     16  C   UNK A   1      28.812  24.575   5.289  1.00  0.00    +0.155 C
ATOM     17  O   UNK A   1      28.778  23.349   5.205  1.00  0.00    -0.295 OA
ATOM     18  C   UNK A   1      29.703  25.284   6.279  1.00  0.00    +0.011 C
ATOM     19  C   UNK A   1      29.263  26.726   6.515  1.00  0.00    -0.037 C
ATOM     20  C   UNK A   1      29.029  27.531   5.203  1.00  0.00    -0.008 C
ATOM     21  C   UNK A   1      30.372  27.665   4.451  1.00  0.00    -0.056 C
ATOM     22  H   UNK A   1      26.694  32.509   3.294  1.00  0.00    +0.024 H
ATOM     23  H   UNK A   1      26.866  30.774   3.132  1.00  0.00    +0.024 H
ATOM     24  H   UNK A   1      25.318  31.462   3.618  1.00  0.00    +0.024 H
ATOM     25  H   UNK A   1      28.785  32.324   4.692  1.00  0.00    +0.027 H
ATOM     26  H   UNK A   1      28.716  31.674   6.321  1.00  0.00    +0.027 H
ATOM     27  H   UNK A   1      30.053  30.231   4.955  1.00  0.00    +0.027 H
ATOM     28  H   UNK A   1      28.802  30.043   3.741  1.00  0.00    +0.027 H
ATOM     29  H   UNK A   1      28.731  29.135   6.635  1.00  0.00    +0.031 H
ATOM     30  H   UNK A   1      26.575  28.233   6.438  1.00  0.00    +0.031 H
ATOM     31  H   UNK A   1      26.725  30.424   7.075  1.00  0.00    +0.031 H
ATOM     32  H   UNK A   1      24.418  30.049   7.060  1.00  0.00    +0.027 H
ATOM     33  H   UNK A   1      24.280  30.162   5.304  1.00  0.00    +0.027 H
ATOM     34  H   UNK A   1      24.345  32.372   7.250  1.00  0.00    +0.029 H
ATOM     35  H   UNK A   1      23.976  32.412   5.517  1.00  0.00    +0.029 H
ATOM     36  H   UNK A   1      26.030  33.570   5.366  1.00  0.00    +0.061 H
ATOM     37  H   UNK A   1      27.532  33.482   6.991  1.00  0.00    +0.210 H
ATOM     38  H   UNK A   1      25.689  29.080   3.750  1.00  0.00    +0.027 H
ATOM     39  H   UNK A   1      25.383  27.661   4.690  1.00  0.00    +0.027 H
ATOM     40  H   UNK A   1      26.562  26.902   2.791  1.00  0.00    +0.031 H
ATOM     41  H   UNK A   1      27.728  28.206   2.830  1.00  0.00    +0.031 H
ATOM     42  H   UNK A   1      27.279  24.825   3.758  1.00  0.00    +0.066 H
ATOM     43  H   UNK A   1      30.733  25.238   5.912  1.00  0.00    +0.035 H
ATOM     44  H   UNK A   1      29.660  24.740   7.230  1.00  0.00    +0.035 H
ATOM     45  H   UNK A   1      28.337  26.710   7.105  1.00  0.00    +0.028 H
ATOM     46  H   UNK A   1      30.015  27.228   7.138  1.00  0.00    +0.028 H
ATOM     47  H   UNK A   1      30.262  28.225   3.515  1.00  0.00    +0.024 H
ATOM     48  H   UNK A   1      30.790  26.692   4.169  1.00  0.00    +0.024 H
ATOM     49  H   UNK A   1      31.121  28.172   5.069  1.00  0.00    +0.024 H
ENDMDL

MODEL 6
REMARK VINA RESULT:      -8.22        6.780        7.760
ATOM      1  C   UNK A   1      28.920  27.952   2.991  1.00  0.00    -0.057 C
ATOM      2  C   UNK A   1      28.816  27.522   4.473  1.00  0.00    -0.003 C
ATOM      3  C   UNK A   1      28.622  26.000   4.542  1.00  0.00    -0.045 C
ATOM      4  C   UNK A   1      27.218  25.582   4.064  1.00  0.00    -0.049 C
ATOM      5  C   UNK A   1      26.075  26.283   4.846  1.00  0.00    -0.029 C
ATOM      6  C   UNK A   1      26.251  27.837   4.872  1.00  0.00    -0.034 C
ATOM      7  C   UNK A   1      27.686  28.177   5.299  1.00  0.00    -0.030 C
ATOM      8  C   UNK A   1      28.111  29.635   5.420  1.00  0.00    -0.047 C
ATOM      9  C   UNK A   1      29.649  29.567   5.510  1.00  0.00    -0.026 C
ATOM     10  C   UNK A   1      30.048  28.107   5.205  1.00  0.00    +0.060 C
ATOM     11  O   UNK A   1      30.297  27.450   6.444  1.00  0.00    -0.393 OA
ATOM     12  C   UNK A   1      25.750  28.566   3.609  1.00  0.00    -0.046 C
ATOM     13  C   UNK A   1      24.841  27.723   2.720  1.00  0.00    -0.031 C
ATOM     14  C   UNK A   1      23.922  26.909   3.581  1.00  0.00    -0.060 C
ATOM     15  C   UNK A   1      22.605  27.170   3.621  1.00  0.00    -0.019 C
ATOM     16  C   UNK A   1      21.694  26.444   4.538  1.00  0.00    +0.155 C
ATOM     17  O   UNK A   1      20.482  26.633   4.454  1.00  0.00    -0.295 OA
ATOM     18  C   UNK A   1      22.285  25.470   5.528  1.00  0.00    +0.011 C
ATOM     19  C   UNK A   1      23.771  25.724   5.764  1.00  0.00    -0.037 C
ATOM     20  C   UNK A   1      24.599  25.854   4.452  1.00  0.00    -0.008 C
ATOM     21  C   UNK A   1      24.561  24.505   3.700  1.00  0.00    -0.056 C
ATOM     22  H   UNK A   1      29.832  27.540   2.543  1.00  0.00    +0.024 H
ATOM     23  H   UNK A   1      28.089  27.589   2.381  1.00  0.00    +0.024 H
ATOM     24  H   UNK A   1      28.968  29.037   2.867  1.00  0.00    +0.024 H
ATOM     25  H   UNK A   1      29.384  25.489   3.941  1.00  0.00    +0.027 H
ATOM     26  H   UNK A   1      28.748  25.640   5.570  1.00  0.00    +0.027 H
ATOM     27  H   UNK A   1      27.147  24.496   4.204  1.00  0.00    +0.027 H
ATOM     28  H   UNK A   1      27.119  25.760   2.990  1.00  0.00    +0.027 H
ATOM     29  H   UNK A   1      26.227  25.947   5.884  1.00  0.00    +0.031 H
ATOM     30  H   UNK A   1      25.606  28.200   5.687  1.00  0.00    +0.031 H
ATOM     31  H   UNK A   1      27.760  27.773   6.324  1.00  0.00    +0.031 H
ATOM     32  H   UNK A   1      27.681  30.109   6.309  1.00  0.00    +0.027 H
ATOM     33  H   UNK A   1      27.810  30.232   4.553  1.00  0.00    +0.027 H
ATOM     34  H   UNK A   1      29.994  29.887   6.499  1.00  0.00    +0.029 H
ATOM     35  H   UNK A   1      30.081  30.248   4.766  1.00  0.00    +0.029 H
ATOM     36  H   UNK A   1      30.970  28.064   4.615  1.00  0.00    +0.061 H
ATOM     37  H   UNK A   1      30.691  26.584   6.240  1.00  0.00    +0.210 H
ATOM     38  H   UNK A   1      26.558  28.971   2.999  1.00  0.00    +0.027 H
ATOM     39  H   UNK A   1      25.190  29.454   3.939  1.00  0.00    +0.027 H
ATOM     40  H   UNK A   1      24.287  28.381   2.040  1.00  0.00    +0.031 H
ATOM     41  H   UNK A   1      25.433  27.059   2.079  1.00  0.00    +0.031 H
ATOM     42  H   UNK A   1      22.136  27.933   3.007  1.00  0.00    +0.066 H
ATOM     43  H   UNK A   1      22.108  24.455   5.161  1.00  0.00    +0.035 H
ATOM     44  H   UNK A   1      21.750  25.582   6.479  1.00  0.00    +0.035 H
ATOM     45  H   UNK A   1      23.872  26.645   6.354  1.00  0.00    +0.028 H
ATOM     46  H   UNK A   1      24.173  24.914   6.387  1.00  0.00    +0.028 H
ATOM     47  H   UNK A   1      25.131  24.543   2.764  1.00  0.00    +0.024 H
ATOM     48  H   UNK A   1      23.543  24.214   3.418  1.00  0.00    +0.024 H
ATOM     49  H   UNK A   1      24.969  23.698   4.318  1.00  0.00    +0.024 H
ENDMDL

MODEL 7
REMARK VINA RESULT:      -7.79        9.610       10.290
ATOM      1  C   UNK A   1      24.401  26.494   3.050  1.00  0.00    -0.057 C
ATOM      2  C   UNK A   1      24.471  26.930   4.532  1.00  0.00    -0.003 C
ATOM      3  C   UNK A   1      24.546  28.462   4.601  1.00  0.00    -0.045 C
ATOM      4  C   UNK A   1      25.914  28.988   4.123  1.00  0.00    -0.049 C
ATOM      5  C   UNK A   1      27.108  28.378   4.905  1.00  0.00    -0.029 C
ATOM      6  C   UNK A   1      27.052  26.815   4.931  1.00  0.00    -0.034 C
ATOM      7  C   UNK A   1      25.648  26.364   5.358  1.00  0.00    -0.030 C
ATOM      8  C   UNK A   1      25.337  24.878   5.479  1.00  0.00    -0.047 C
ATOM      9  C   UNK A   1      23.798  24.826   5.569  1.00  0.00    -0.026 C
ATOM     10  C   UNK A   1      23.288  26.252   5.264  1.00  0.00    +0.060 C
ATOM     11  O   UNK A   1      22.988  26.887   6.503  1.00  0.00    -0.393 OA
ATOM     12  C   UNK A   1      27.608  26.126   3.668  1.00  0.00    -0.046 C
ATOM     13  C   UNK A   1      28.449  27.037   2.779  1.00  0.00    -0.031 C
ATOM     14  C   UNK A   1      29.303  27.920   3.640  1.00  0.00    -0.060 C
ATOM     15  C   UNK A   1      30.637  27.761   3.680  1.00  0.00    -0.019 C
ATOM     16  C   UNK A   1      31.488  28.555   4.597  1.00  0.00    +0.155 C
ATOM     17  O   UNK A   1      32.711  28.461   4.513  1.00  0.00    -0.295 OA
ATOM     18  C   UNK A   1      30.824  29.481   5.587  1.00  0.00    +0.011 C
ATOM     19  C   UNK A   1      29.362  29.113   5.823  1.00  0.00    -0.037 C
ATOM     20  C   UNK A   1      28.546  28.919   4.511  1.00  0.00    -0.008 C
ATOM     21  C   UNK A   1      28.479  30.267   3.759  1.00  0.00    -0.056 C
ATOM     22  H   UNK A   1      23.459  26.834   2.602  1.00  0.00    +0.024 H
ATOM     23  H   UNK A   1      25.201  26.919   2.440  1.00  0.00    +0.024 H
ATOM     24  H   UNK A   1      24.436  25.408   2.926  1.00  0.00    +0.024 H
ATOM     25  H   UNK A   1      23.748  28.913   4.000  1.00  0.00    +0.027 H
ATOM     26  H   UNK A   1      24.394  28.812   5.629  1.00  0.00    +0.027 H
ATOM     27  H   UNK A   1      25.900  30.076   4.263  1.00  0.00    +0.027 H
ATOM     28  H   UNK A   1      26.027  28.818   3.049  1.00  0.00    +0.027 H
ATOM     29  H   UNK A   1      26.930  28.701   5.943  1.00  0.00    +0.031 H
ATOM     30  H   UNK A   1      27.724  26.503   5.746  1.00  0.00    +0.031 H
ATOM     31  H   UNK A   1      25.543  26.762   6.383  1.00  0.00    +0.031 H
ATOM     32  H   UNK A   1      25.803  24.439   6.368  1.00  0.00    +0.027 H
ATOM     33  H   UNK A   1      25.683  24.306   4.612  1.00  0.00    +0.027 H
ATOM     34  H   UNK A   1      23.479  24.481   6.558  1.00  0.00    +0.029 H
ATOM     35  H   UNK A   1      23.421  24.115   4.825  1.00  0.00    +0.029 H
ATOM     36  H   UNK A   1      22.366  26.224   4.674  1.00  0.00    +0.061 H
ATOM     37  H   UNK A   1      22.529  27.720   6.299  1.00  0.00    +0.210 H
ATOM     38  H   UNK A   1      26.834  25.660   3.058  1.00  0.00    +0.027 H
ATOM     39  H   UNK A   1      28.235  25.284   3.998  1.00  0.00    +0.027 H
ATOM     40  H   UNK A   1      29.053  26.424   2.099  1.00  0.00    +0.031 H
ATOM     41  H   UNK A   1      27.808  27.653   2.138  1.00  0.00    +0.031 H
ATOM     42  H   UNK A   1      31.163  27.037   3.066  1.00  0.00    +0.066 H
ATOM     43  H   UNK A   1      30.921  30.507   5.220  1.00  0.00    +0.035 H
ATOM     44  H   UNK A   1      31.366  29.410   6.538  1.00  0.00    +0.035 H
ATOM     45  H   UNK A   1      29.333  28.187   6.413  1.00  0.00    +0.028 H
ATOM     46  H   UNK A   1      28.899  29.889   6.446  1.00  0.00    +0.028 H
ATOM     47  H   UNK A   1      27.915  30.185   2.823  1.00  0.00    +0.024 H
ATOM     48  H   UNK A   1      29.472  30.636   3.477  1.00  0.00    +0.024 H
ATOM     49  H   UNK A   1      28.011  31.041   4.377  1.00  0.00    +0.024 H
ENDMDL

MODEL 8
REMARK VINA RESULT:      -7.18        9.240       10.420
ATOM      1  C   UNK A   1      25.132  27.268   3.950  1.00  0.00    -0.057 C
ATOM      2  C   UNK A   1      25.061  27.704   5.432  1.00  0.00    -0.003 C
ATOM      3  C   UNK A   1      24.648  29.181   5.501  1.00  0.00    -0.045 C
ATOM      4  C   UNK A   1      25.779  30.112   5.023  1.00  0.00    -0.049 C
ATOM      5  C   UNK A   1      27.105  29.911   5.805  1.00  0.00    -0.029 C
ATOM      6  C   UNK A   1      27.546  28.410   5.831  1.00  0.00    -0.034 C
ATOM      7  C   UNK A   1      26.357  27.539   6.258  1.00  0.00    -0.030 C
ATOM      8  C   UNK A   1      26.531  26.030   6.379  1.00  0.00    -0.047 C
ATOM      9  C   UNK A   1      25.087  25.495   6.469  1.00  0.00    -0.026 C
ATOM     10  C   UNK A   1      24.153  26.686   6.164  1.00  0.00    +0.060 C
ATOM     11  O   UNK A   1      23.668  27.194   7.403  1.00  0.00    -0.393 OA
ATOM     12  C   UNK A   1      28.291  27.933   4.568  1.00  0.00    -0.046 C
ATOM     13  C   UNK A   1      28.801  29.063   3.679  1.00  0.00    -0.031 C
ATOM     14  C   UNK A   1      29.332  30.170   4.540  1.00  0.00    -0.060 C
ATOM     15  C   UNK A   1      30.647  30.441   4.580  1.00  0.00    -0.019 C
ATOM     16  C   UNK A   1      31.204  31.464   5.497  1.00  0.00    +0.155 C
ATOM     17  O   UNK A   1      32.394  31.761   5.413  1.00  0.00    -0.295 OA
ATOM     18  C   UNK A   1      30.282  32.132   6.487  1.00  0.00    +0.011 C
ATOM     19  C   UNK A   1      29.011  31.321   6.723  1.00  0.00    -0.037 C
ATOM     20  C   UNK A   1      28.298  30.879   5.411  1.00  0.00    -0.008 C
ATOM     21  C   UNK A   1      27.809  32.137   4.659  1.00  0.00    -0.056 C
ATOM     22  H   UNK A   1      24.131  27.293   3.502  1.00  0.00    +0.024 H
ATOM     23  H   UNK A   1      25.756  27.924   3.340  1.00  0.00    +0.024 H
ATOM     24  H   UNK A   1      25.509  26.248   3.826  1.00  0.00    +0.024 H
ATOM     25  H   UNK A   1      23.748  29.357   4.900  1.00  0.00    +0.027 H
ATOM     26  H   UNK A   1      24.392  29.465   6.529  1.00  0.00    +0.027 H
ATOM     27  H   UNK A   1      25.422  31.140   5.163  1.00  0.00    +0.027 H
ATOM     28  H   UNK A   1      25.940  29.986   3.949  1.00  0.00    +0.027 H
ATOM     29  H   UNK A   1      26.834  30.161   6.843  1.00  0.00    +0.031 H
ATOM     30  H   UNK A   1      28.282  28.327   6.646  1.00  0.00    +0.031 H
ATOM     31  H   UNK A   1      26.131  27.883   7.283  1.00  0.00    +0.031 H
ATOM     32  H   UNK A   1      27.112  25.761   7.268  1.00  0.00    +0.027 H
ATOM     33  H   UNK A   1      27.040  25.598   5.512  1.00  0.00    +0.027 H
ATOM     34  H   UNK A   1      24.894  25.067   7.458  1.00  0.00    +0.029 H
ATOM     35  H   UNK A   1      24.954  24.701   5.725  1.00  0.00    +0.029 H
ATOM     36  H   UNK A   1      23.287  26.368   5.574  1.00  0.00    +0.061 H
ATOM     37  H   UNK A   1      22.969  27.839   7.199  1.00  0.00    +0.210 H
ATOM     38  H   UNK A   1      27.704  27.246   3.958  1.00  0.00    +0.027 H
ATOM     39  H   UNK A   1      29.152  27.333   4.898  1.00  0.00    +0.027 H
ATOM     40  H   UNK A   1      29.568  28.672   2.999  1.00  0.00    +0.031 H
ATOM     41  H   UNK A   1      27.998  29.445   3.038  1.00  0.00    +0.031 H
ATOM     42  H   UNK A   1      31.375  29.921   3.966  1.00  0.00    +0.066 H
ATOM     43  H   UNK A   1      30.050  33.136   6.120  1.00  0.00    +0.035 H
ATOM     44  H   UNK A   1      30.818  32.236   7.438  1.00  0.00    +0.035 H
ATOM     45  H   UNK A   1      29.276  30.433   7.313  1.00  0.00    +0.028 H
ATOM     46  H   UNK A   1      28.326  31.911   7.346  1.00  0.00    +0.028 H
ATOM     47  H   UNK A   1      27.299  31.881   3.723  1.00  0.00    +0.024 H
ATOM     48  H   UNK A   1      28.634  32.801   4.377  1.00  0.00    +0.024 H
ATOM     49  H   UNK A   1      27.119  32.722   5.277  1.00  0.00    +0.024 H
ENDMDL

MODEL 9
REMARK VINA RESULT:      -6.78       12.390       12.950
ATOM      1  C   UNK A   1      23.527  28.418   2.583  1.00  0.00    -0.057 C
ATOM      2  C   UNK A   1      23.931  28.597   4.065  1.00  0.00    -0.003 C
ATOM      3  C   UNK A   1      25.256  29.371   4.134  1.00  0.00    -0.045 C
ATOM      4  C   UNK A   1      26.443  28.513   3.656  1.00  0.00    -0.049 C
ATOM      5  C   UNK A   1      26.585  27.179   4.438  1.00  0.00    -0.029 C
ATOM      6  C   UNK A   1      25.244  26.372   4.464  1.00  0.00    -0.034 C
ATOM      7  C   UNK A   1      24.101  27.302   4.891  1.00  0.00    -0.030 C
ATOM      8  C   UNK A   1      22.685  26.751   5.012  1.00  0.00    -0.047 C
ATOM      9  C   UNK A   1      21.802  28.012   5.102  1.00  0.00    -0.026 C
ATOM     10  C   UNK A   1      22.717  29.218   4.797  1.00  0.00    +0.060 C
ATOM     11  O   UNK A   1      23.086  29.816   6.036  1.00  0.00    -0.393 OA
ATOM     12  C   UNK A   1      24.971  25.530   3.201  1.00  0.00    -0.046 C
ATOM     13  C   UNK A   1      26.194  25.323   2.312  1.00  0.00    -0.031 C
ATOM     14  C   UNK A   1      27.400  25.091   3.173  1.00  0.00    -0.060 C
ATOM     15  C   UNK A   1      27.995  23.887   3.213  1.00  0.00    -0.019 C
ATOM     16  C   UNK A   1      29.126  23.607   4.130  1.00  0.00    +0.155 C
ATOM     17  O   UNK A   1      29.714  22.531   4.046  1.00  0.00    -0.295 OA
ATOM     18  C   UNK A   1      29.538  24.669   5.120  1.00  0.00    +0.011 C
ATOM     19  C   UNK A   1      28.431  25.693   5.356  1.00  0.00    -0.037 C
ATOM     20  C   UNK A   1      27.823  26.270   4.044  1.00  0.00    -0.008 C
ATOM     21  C   UNK A   1      28.916  27.062   3.292  1.00  0.00    -0.056 C
ATOM     22  H   UNK A   1      23.298  29.392   2.135  1.00  0.00    +0.024 H
ATOM     23  H   UNK A   1      24.321  27.980   1.973  1.00  0.00    +0.024 H
ATOM     24  H   UNK A   1      22.637  27.795   2.459  1.00  0.00    +0.024 H
ATOM     25  H   UNK A   1      25.198  30.286   3.533  1.00  0.00    +0.027 H
ATOM     26  H   UNK A   1      25.465  29.690   5.162  1.00  0.00    +0.027 H
ATOM     27  H   UNK A   1      27.347  29.118   3.796  1.00  0.00    +0.027 H
ATOM     28  H   UNK A   1      26.362  28.325   2.582  1.00  0.00    +0.027 H
ATOM     29  H   UNK A   1      26.758  27.505   5.476  1.00  0.00    +0.031 H
ATOM     30  H   UNK A   1      25.350  25.639   5.279  1.00  0.00    +0.031 H
ATOM     31  H   UNK A   1      24.376  27.607   5.916  1.00  0.00    +0.031 H
ATOM     32  H   UNK A   1      22.572  26.121   5.901  1.00  0.00    +0.027 H
ATOM     33  H   UNK A   1      22.396  26.149   4.145  1.00  0.00    +0.027 H
ATOM     34  H   UNK A   1      21.338  28.090   6.091  1.00  0.00    +0.029 H
ATOM     35  H   UNK A   1      20.999  27.939   4.358  1.00  0.00    +0.029 H
ATOM     36  H   UNK A   1      22.190  29.975   4.207  1.00  0.00    +0.061 H
ATOM     37  H   UNK A   1      23.532  30.655   5.832  1.00  0.00    +0.210 H
ATOM     38  H   UNK A   1      24.158  25.924   2.591  1.00  0.00    +0.027 H
ATOM     39  H   UNK A   1      24.609  24.545   3.531  1.00  0.00    +0.027 H
ATOM     40  H   UNK A   1      26.010  24.483   1.632  1.00  0.00    +0.031 H
ATOM     41  H   UNK A   1      26.360  26.197   1.671  1.00  0.00    +0.031 H
ATOM     42  H   UNK A   1      27.676  23.051   2.599  1.00  0.00    +0.066 H
ATOM     43  H   UNK A   1      30.451  25.148   4.753  1.00  0.00    +0.035 H
ATOM     44  H   UNK A   1      29.775  24.177   6.071  1.00  0.00    +0.035 H
ATOM     45  H   UNK A   1      27.640  25.212   5.946  1.00  0.00    +0.028 H
ATOM     46  H   UNK A   1      28.829  26.505   5.979  1.00  0.00    +0.028 H
ATOM     47  H   UNK A   1      28.539  27.491   2.356  1.00  0.00    +0.024 H
ATOM     48  H   UNK A   1      29.767  26.432   3.010  1.00  0.00    +0.024 H
ATOM     49  H   UNK A   1      29.308  27.878   3.910  1.00  0.00    +0.024 H
ENDMDL
